/*--------------------------------*- C++ -*----------------------------------*\
| =========                 |                                                 |
| \\      /  F ield         | OpenFOAM: The Open Source CFD Toolbox           |
|  \\    /   O peration     | Version:  v2012                                 |
|   \\  /    A nd           | Website:  www.openfoam.com                      |
|    \\/     M anipulation  |                                                 |
\*---------------------------------------------------------------------------*/
FoamFile
{
    version     2.0;
    format      ascii;
    class       volScalarField;
    location    "5";
    object      T;
}
// * * * * * * * * * * * * * * * * * * * * * * * * * * * * * * * * * * * * * //

dimensions      [0 0 0 1 0 0 0];


internalField   nonuniform List<scalar> 
1000
(
1.03492e-282
1.03492e-282
1.03492e-282
1.03492e-282
1.03492e-282
1.03492e-282
1.03492e-282
1.03492e-282
1.03492e-282
1.03492e-282
1.03492e-282
1.03492e-282
1.03492e-282
1.03492e-282
1.03492e-282
1.03492e-282
1.03492e-282
1.03492e-282
1.03492e-282
1.03492e-282
1.03492e-282
1.03492e-282
1.03492e-282
1.03492e-282
1.03492e-282
1.03492e-282
1.03492e-282
1.03492e-282
1.03492e-282
1.03492e-282
1.03492e-282
1.03492e-282
1.03492e-282
1.03492e-282
1.03492e-282
1.03492e-282
1.03492e-282
1.03492e-282
1.03492e-282
1.03492e-282
1.03492e-282
1.03492e-282
1.03492e-282
1.03492e-282
1.03492e-282
1.03492e-282
1.03492e-282
1.03492e-282
1.03492e-282
1.03492e-282
1.03492e-282
1.03492e-282
1.03492e-282
1.03492e-282
1.03492e-282
1.03492e-282
1.03492e-282
1.03492e-282
1.03492e-282
1.03492e-282
1.03492e-282
1.03492e-282
1.03492e-282
1.03492e-282
1.03492e-282
1.03492e-282
1.03492e-282
1.03492e-282
1.03492e-282
1.03492e-282
1.03492e-282
1.03492e-282
1.03492e-282
1.03492e-282
1.03492e-282
1.03492e-282
1.03492e-282
1.03492e-282
1.03492e-282
1.03492e-282
1.03492e-282
1.03492e-282
1.03492e-282
1.03492e-282
1.03492e-282
1.03492e-282
1.03492e-282
1.03492e-282
1.03492e-282
1.03492e-282
1.03492e-282
1.03492e-282
1.03492e-282
1.03492e-282
1.03492e-282
1.03492e-282
1.03492e-282
1.03492e-282
1.03492e-282
1.03492e-282
1.03492e-282
1.03492e-282
1.03492e-282
1.03492e-282
1.03492e-282
1.03492e-282
1.03492e-282
1.03492e-282
1.03492e-282
1.03492e-282
1.03492e-282
1.03492e-282
1.03492e-282
1.03492e-282
1.03492e-282
1.03492e-282
1.03492e-282
1.03492e-282
1.03492e-282
1.03492e-282
1.03492e-282
1.03492e-282
1.03492e-282
1.03492e-282
1.03492e-282
1.03492e-282
1.03492e-282
1.03492e-282
1.03492e-282
1.03492e-282
1.03492e-282
1.03492e-282
1.03492e-282
1.03492e-282
1.03492e-282
1.03492e-282
1.03492e-282
1.03492e-282
1.03492e-282
1.03492e-282
1.03492e-282
1.03492e-282
1.03492e-282
1.03492e-282
1.03492e-282
1.03492e-282
1.03492e-282
1.03492e-282
1.03492e-282
1.03492e-282
1.03492e-282
1.03492e-282
1.03492e-282
1.03492e-282
1.03492e-282
1.03492e-282
1.03492e-282
1.03492e-282
1.03492e-282
1.03492e-282
1.03492e-282
1.03492e-282
1.03492e-282
1.03492e-282
1.03492e-282
1.03492e-282
1.03492e-282
1.03492e-282
1.03492e-282
1.03492e-282
1.03492e-282
1.03492e-282
1.03492e-282
1.03492e-282
1.03492e-282
1.03492e-282
1.03492e-282
1.03492e-282
1.03492e-282
1.03492e-282
1.03492e-282
1.03492e-282
1.03492e-282
1.03492e-282
1.03492e-282
1.03492e-282
1.03492e-282
1.03492e-282
1.03492e-282
1.03492e-282
1.03492e-282
1.03492e-282
1.03492e-282
1.03492e-282
1.03492e-282
1.03491e-282
1.03492e-282
1.03501e-282
1.03539e-282
1.0365e-282
1.03814e-282
1.03404e-282
9.91381e-283
8.01699e-283
2.52285e-283
-5.45758e-283
1.57251e-282
2.29113e-281
1.16398e-280
3.81665e-280
7.40812e-280
-4.25029e-280
-1.11565e-278
-5.66937e-278
-1.81008e-277
-3.27269e-277
3.3925e-277
5.74213e-276
2.75837e-275
8.37648e-275
1.34285e-274
-2.51287e-274
-2.95738e-273
-1.32168e-272
-3.74308e-272
-4.90111e-272
1.71993e-271
1.51008e-270
6.19311e-270
1.59563e-269
1.41573e-269
-1.09515e-268
-7.57008e-268
-2.81209e-267
-6.35943e-267
-1.58041e-267
6.52784e-266
3.68835e-265
1.22224e-264
2.28089e-264
-1.91651e-264
-3.65402e-263
-1.72768e-262
-4.99535e-262
-6.70766e-262
2.1718e-261
1.92031e-260
7.6798e-260
1.86407e-259
1.06967e-259
-1.56204e-258
-9.43859e-258
-3.18289e-257
-5.978e-257
4.78968e-257
9.27716e-256
4.30293e-255
1.19554e-254
1.36964e-254
-6.34913e-254
-4.8354e-253
-1.79197e-252
-3.84524e-252
2.13125e-253
4.4101e-251
2.24604e-250
6.62376e-250
8.97358e-250
-2.76718e-249
-2.41053e-248
-9.23585e-248
-2.03857e-247
-1.66509e-248
2.16344e-246
1.11473e-245
3.26141e-245
4.23786e-245
-1.43642e-244
-1.18616e-243
-4.38919e-243
-9.0768e-243
2.33002e-243
1.10205e-241
5.24117e-241
1.41534e-240
1.36797e-240
-8.47785e-240
-5.66601e-239
-1.88697e-238
-3.22445e-238
4.33171e-238
5.56941e-237
2.26646e-236
5.15563e-236
1.09268e-236
-4.93e-235
-2.51088e-234
-6.97278e-234
-7.30115e-234
3.80101e-233
2.59695e-232
8.50954e-232
1.37153e-231
-2.29831e-231
-2.52354e-230
-9.64549e-230
-1.97638e-229
5.78878e-230
2.30995e-228
1.0319e-227
2.49613e-227
1.18529e-227
-1.99098e-226
-1.05286e-225
-2.8963e-225
-2.83215e-225
1.61003e-224
1.03235e-223
3.15869e-223
4.22945e-223
-1.21181e-222
-9.78817e-222
-3.28076e-221
-5.28678e-221
8.3601e-221
9.02349e-220
3.27285e-219
5.95964e-219
-5.1279e-219
-8.1294e-218
-3.15416e-217
-6.24656e-217
2.60491e-217
7.19165e-216
2.94853e-215
6.18146e-215
-8.547e-216
-6.27399e-214
-2.68092e-213
-5.8235e-213
-1.63362e-214
5.41611e-212
2.37481e-211
5.24645e-211
5.67213e-212
-4.63619e-210
-2.05075e-209
-4.52902e-209
-5.19919e-210
3.93659e-208
1.72584e-207
3.74682e-207
1.9781e-208
-3.31061e-206
-1.41376e-205
-2.96619e-205
2.36711e-206
2.74874e-204
1.12507e-203
2.24008e-203
-6.54719e-204
-2.2432e-202
-8.67447e-202
-1.60568e-201
9.71172e-202
1.79011e-200
6.45817e-200
1.08388e-199
-1.1462e-199
-1.38945e-198
-4.62446e-198
-6.80462e-198
1.17873e-197
1.04347e-196
3.1702e-196
3.88747e-196
-1.09504e-195
-7.54459e-195
-2.06919e-194
-1.93247e-194
9.3534e-194
5.22723e-193
1.27718e-192
7.37792e-193
-7.41621e-192
-3.45484e-191
-7.38813e-191
-9.28584e-192
5.4876e-190
2.1684e-189
3.95309e-189
-1.92084e-189
-3.80032e-188
-1.28617e-187
-1.91388e-187
2.68245e-187
2.46639e-186
7.16919e-186
8.02056e-186
-2.42591e-185
-1.50031e-184
-3.72853e-184
-2.57394e-184
1.8153e-183
8.54749e-183
1.79086e-182
2.81892e-183
-1.19981e-181
-4.55291e-181
-7.8137e-181
4.48397e-181
7.19163e-180
2.26093e-179
3.00112e-179
-5.21244e-179
-3.95917e-178
-1.04202e-177
-9.40616e-178
3.88091e-177
2.01493e-176
4.42494e-176
1.77961e-176
-2.38035e-175
-9.50903e-175
-1.71009e-174
4.24275e-175
1.28612e-173
4.16461e-173
5.87525e-173
-7.14024e-173
-6.29253e-172
-1.69062e-171
-1.70161e-171
5.09791e-171
2.82643e-170
6.33874e-170
3.50143e-170
-2.82793e-169
-1.17437e-168
-2.17949e-168
9.0389e-171
1.35693e-167
4.53296e-167
6.77899e-167
-5.18875e-167
-5.85891e-166
-1.62896e-165
-1.85402e-165
3.66991e-165
2.32054e-164
5.45283e-164
4.15243e-164
-1.85806e-163
-8.52416e-163
-1.69839e-162
-5.74814e-163
7.97692e-162
2.92474e-161
4.90632e-161
-8.38955e-162
-3.06551e-160
-9.42074e-160
-1.30596e-159
1.09158e-159
1.08124e-158
2.85987e-158
3.16247e-158
-5.67663e-158
-3.55022e-157
-8.20945e-157
-6.78489e-157
2.29697e-156
1.09529e-155
2.23527e-155
1.20803e-155
-8.09952e-155
-3.19671e-154
-5.79108e-154
-1.3976e-154
2.59565e-153
8.87474e-153
1.4326e-152
-1.08083e-153
-7.71958e-152
-2.3547e-151
-3.39811e-151
1.39855e-151
2.15706e-150
5.99645e-150
7.76886e-150
-5.93127e-150
-5.70938e-149
-1.47146e-148
-1.7232e-148
1.92827e-148
1.43974e-147
3.49215e-147
3.73843e-147
-5.43528e-147
-3.47371e-146
-8.04206e-146
-8.00679e-146
1.38565e-145
8.0439e-145
1.80222e-144
1.70899e-144
-3.2537e-144
-1.79156e-143
-3.93881e-143
-3.6632e-143
7.0897e-143
3.84249e-142
8.40702e-142
7.91522e-142
-1.43401e-141
-7.93807e-141
-1.75315e-140
-1.72188e-140
2.67376e-140
1.57823e-139
3.56973e-139
3.74964e-139
-4.51085e-139
-3.01336e-138
-7.08541e-138
-8.10532e-138
6.57974e-138
5.50426e-137
1.36723e-136
1.72351e-136
-7.2069e-137
-9.5592e-136
-2.55535e-135
-3.57494e-135
1.6163e-136
1.56263e-134
4.6035e-134
7.18071e-134
2.1392e-134
-2.36334e-133
-7.94387e-133
-1.38783e-132
-8.48739e-133
3.1985e-132
1.30205e-131
2.56555e-131
2.31357e-131
-3.57231e-131
-2.00263e-130
-4.50773e-130
-5.31167e-130
2.36503e-130
2.83455e-129
7.47076e-129
1.08681e-128
2.53441e-129
-3.55864e-128
-1.15571e-127
-2.02366e-127
-1.45507e-127
3.62106e-127
1.64166e-126
3.45139e-126
3.84026e-126
-2.007e-126
-2.07837e-125
-5.37742e-125
-7.92295e-125
-2.82706e-125
2.1924e-124
7.56121e-124
1.40215e-123
1.27818e-123
-1.52421e-123
-9.32522e-123
-2.1822e-122
-2.94882e-122
-5.45617e-123
9.39405e-122
2.97758e-121
5.30498e-121
4.63651e-121
-5.90901e-121
-3.45306e-120
-8.0213e-120
-1.10153e-119
-3.17235e-120
3.08299e-119
1.02531e-118
1.9062e-118
1.91082e-118
-1.25026e-118
-1.05778e-117
-2.6713e-117
-4.0858e-117
-2.49144e-117
7.24257e-117
3.02454e-116
6.34809e-116
7.99939e-116
1.13236e-116
-2.49078e-115
-7.74743e-115
-1.41005e-114
-1.44238e-114
6.79951e-115
7.04408e-114
1.84146e-113
2.98392e-113
2.41457e-113
-3.20801e-113
-1.78115e-112
-4.15041e-112
-6.12016e-112
-3.81069e-112
9.72713e-112
4.1749e-111
9.00515e-111
1.23655e-110
5.89603e-111
-2.45464e-110
-9.24582e-110
-1.90115e-109
-2.49674e-109
-9.74882e-110
5.50969e-109
1.95491e-108
3.93238e-108
5.08954e-108
1.92823e-108
-1.12427e-107
-3.96447e-107
-7.99303e-107
-1.05112e-106
-4.67198e-107
2.08549e-106
7.70788e-106
1.59499e-105
2.19051e-105
1.25831e-105
-3.43827e-105
-1.4286e-104
-3.10936e-104
-4.56017e-104
-3.40776e-104
4.69065e-104
2.49269e-103
5.87035e-103
9.35558e-103
8.82313e-103
-3.9272e-103
-3.99705e-102
-1.05948e-101
-1.86337e-101
-2.14271e-101
-4.13346e-102
5.59816e-101
1.79309e-100
3.54563e-100
4.84306e-100
3.15893e-100
-5.92495e-100
-2.75726e-99
-6.32604e-99
-1.01251e-98
-1.02214e-98
1.37713e-99
3.61186e-98
1.03123e-97
1.93958e-97
2.55448e-97
1.56062e-97
-3.30063e-97
-1.46753e-96
-3.34645e-96
-5.42178e-96
-5.80044e-96
-5.34838e-97
1.63014e-95
5.02448e-95
9.9661e-95
1.42836e-94
1.20248e-94
-7.89797e-95
-6.03763e-94
-1.56081e-93
-2.81681e-93
-3.6529e-93
-2.3334e-93
4.13845e-93
1.94549e-92
4.55952e-92
7.73648e-92
9.33597e-92
4.53926e-92
-1.46053e-91
-5.7392e-91
-1.2779e-90
-2.09924e-90
-2.4464e-90
-1.02721e-90
4.25608e-90
1.5829e-89
3.47142e-89
5.67839e-89
6.6689e-89
3.07746e-89
-1.06222e-88
-4.10262e-88
-9.15833e-88
-1.53208e-87
-1.88602e-87
-1.12851e-87
2.18782e-87
9.90856e-87
2.33253e-86
4.09135e-86
5.43377e-86
4.30728e-86
-3.01078e-86
-2.17062e-85
-5.65063e-85
-1.0653e-84
-1.55426e-84
-1.56683e-84
-1.80732e-85
4.02759e-84
1.26677e-83
2.64651e-83
4.29585e-83
5.26626e-83
3.41541e-83
-4.97009e-83
-2.49029e-82
-6.08044e-82
-1.11606e-81
-1.61432e-81
-1.65551e-81
-3.46795e-82
3.72298e-81
1.22569e-80
2.63633e-80
4.45315e-80
5.90543e-80
5.09874e-80
-1.4911e-80
-1.9119e-79
-5.36482e-79
-1.07888e-78
-1.73723e-78
-2.18701e-78
-1.67732e-78
1.14421e-78
8.24626e-78
2.17679e-77
4.26322e-77
6.76122e-77
8.43503e-77
6.45205e-77
-4.29205e-77
-3.13052e-76
-8.30176e-76
-1.6394e-75
-2.64149e-75
-3.40968e-75
-2.92752e-75
6.95462e-76
1.03573e-74
2.95805e-74
6.09818e-74
1.02701e-73
1.41817e-73
1.44259e-73
4.24284e-74
-2.74518e-73
-9.55999e-73
-2.14912e-72
-3.88747e-72
-5.86636e-72
-7.06607e-72
-5.22579e-72
3.72017e-72
2.5912e-71
6.88396e-71
1.38402e-70
2.31952e-70
3.25209e-70
3.51432e-70
1.73865e-70
-4.41326e-70
-1.83224e-69
-4.38941e-69
-8.37852e-69
-1.35415e-68
-1.83636e-68
-1.89252e-68
-7.39094e-69
2.94771e-68
1.10758e-67
2.58678e-67
4.89215e-67
7.90709e-67
1.08402e-66
1.15871e-66
5.85818e-67
-1.3762e-66
-5.83367e-66
-1.41633e-65
-2.75836e-65
-4.60983e-65
-6.64197e-65
-7.84595e-65
-6.01742e-65
2.87808e-65
2.52635e-64
6.99577e-64
1.467e-63
2.61615e-63
4.07263e-63
5.44306e-63
5.71912e-63
2.86046e-63
-6.69348e-63
-2.84072e-62
-6.95238e-62
-1.37656e-61
-2.36799e-61
-3.58837e-61
-4.68089e-61
-4.76439e-61
-2.08025e-61
6.43133e-61
2.5496e-60
6.15006e-60
1.21513e-59
2.10275e-59
3.23559e-59
4.35684e-59
4.7868e-59
3.11206e-59
-3.22069e-59
-1.83339e-58
-4.81683e-58
-1.00116e-57
-1.81235e-57
-2.9371e-57
-4.25559e-57
-5.33955e-57
-5.18228e-57
-1.8049e-57
8.24846e-57
3.04333e-56
7.24913e-56
1.43963e-55
2.53926e-55
4.05297e-55
5.83135e-55
7.33453e-55
7.28351e-55
3.13703e-55
-9.61357e-55
-3.82567e-54
-9.35296e-54
-1.89566e-53
-3.41981e-53
-5.62089e-53
-8.43977e-53
-1.13957e-52
-1.31505e-52
-1.0809e-52
1.1155e-53
3.20848e-52
9.71334e-52
2.18224e-51
4.24297e-51
7.47893e-51
1.21456e-50
1.81868e-50
2.47607e-50
2.93921e-50
2.65717e-50
5.60137e-51
-5.24744e-50
-1.7882e-49
-4.2115e-49
-8.47001e-49
-1.54267e-48
-2.60144e-48
-4.08972e-48
-5.97203e-48
-7.96493e-48
-9.27591e-48
-8.16723e-48
-1.27073e-48
1.7422e-47
5.79405e-47
1.36037e-46
2.74936e-46
5.06405e-46
8.69594e-46
1.40466e-45
2.13587e-45
3.03515e-45
3.95201e-45
4.48786e-45
3.7841e-45
1.82071e-46
-9.29496e-45
-2.96889e-44
-6.91135e-44
-1.39987e-43
-2.60308e-43
-4.54483e-43
-7.52663e-43
-1.18654e-42
-1.77785e-42
-2.51329e-42
-3.29507e-42
-3.85055e-42
-3.57522e-42
-1.27176e-42
5.26705e-42
1.98991e-41
4.90785e-41
1.03185e-40
1.98282e-40
3.58252e-40
6.16997e-40
1.01993e-39
1.62302e-39
2.48611e-39
3.65411e-39
5.11528e-39
6.71772e-39
8.01316e-39
7.97829e-39
4.5355e-39
-6.24608e-39
-3.14463e-38
-8.33417e-38
-1.82561e-37
-3.62818e-37
-6.77811e-37
-1.21094e-36
-2.08843e-36
-3.49602e-36
-5.69836e-36
-9.05776e-36
-1.40444e-35
-2.12208e-35
-3.11675e-35
-4.42875e-35
-6.03777e-35
-7.7773e-35
-9.1725e-35
-9.14531e-35
-5.49275e-35
6.01532e-35
3.31686e-34
8.98789e-34
2.00411e-33
4.06286e-33
7.77434e-33
1.43004e-32
2.55487e-32
4.46192e-32
7.65019e-32
1.29162e-31
2.15213e-31
3.54492e-31
5.77985e-31
9.33791e-31
1.49614e-30
2.37899e-30
3.75628e-30
5.89234e-30
9.18682e-30
1.42413e-29
2.19575e-29
3.36811e-29
5.14126e-29
7.81142e-29
1.18156e-28
1.77961e-28
2.66938e-28
3.9882e-28
5.93588e-28
8.80217e-28
1.30059e-27
1.91508e-27
2.81042e-27
4.11086e-27
5.99393e-27
8.7125e-27
1.26258e-26
1.82433e-26
2.62883e-26
3.78287e-26
5.49364e-26
8.70876e-26
)
;

boundaryField
{
    sides
    {
        type            zeroGradient;
    }
    empty
    {
        type            empty;
    }
}


// ************************************************************************* //
