/*--------------------------------*- C++ -*----------------------------------*\
| =========                 |                                                 |
| \\      /  F ield         | OpenFOAM: The Open Source CFD Toolbox           |
|  \\    /   O peration     | Version:  v2012                                 |
|   \\  /    A nd           | Website:  www.openfoam.com                      |
|    \\/     M anipulation  |                                                 |
\*---------------------------------------------------------------------------*/
FoamFile
{
    version     2.0;
    format      ascii;
    class       volScalarField;
    location    "5";
    object      T;
}
// * * * * * * * * * * * * * * * * * * * * * * * * * * * * * * * * * * * * * //

dimensions      [0 0 0 1 0 0 0];


internalField   nonuniform List<scalar> 
1000
(
0
0
0
0
0
0
0
0
0
0
0
0
0
0
0
0
0
0
0
0
0
0
0
0
0
0
0
0
0
0
0
0
0
0
0
0
0
0
0
0
0
0
0
0
0
0
0
0
0
0
0
0
0
0
0
0
0
0
0
0
0
0
0
0
0
0
0
0
0
0
0
0
0
0
0
0
0
0
0
0
0
0
0
0
0
0
0
0
0
0
0
0
0
0
0
0
0
0
0
0
0
0
0
0
0
0
0
0
0
0
0
0
0
0
0
0
0
0
0
0
0
0
0
0
0
0
0
0
0
0
0
0
0
0
0
0
0
0
0
0
0
0
0
0
0
0
0
0
0
0
0
0
0
0
0
0
0
0
0
0
0
0
0
0
0
0
0
0
0
0
0
0
0
0
0
0
0
0
0
0
0
0
0
0
0
0
0
0
0
0
0
0
0
0
0
0
0
0
0
0
0
0
0
0
0
0
0
0
0
0
0
0
0
0
0
0
0
0
0
0
0
0
0
0
0
0
0
0
0
0
0
0
0
0
0
0
0
0
0
0
0
0
0
0
0
0
0
0
0
0
0
0
0
0
0
0
0
0
0
0
0
0
0
0
0
0
0
0
0
0
0
0
0
0
0
0
0
0
0
0
0
0
0
0
0
0
0
0
0
0
0
0
0
0
0
0
0
0
0
0
0
0
0
0
0
0
0
0
0
0
0
0
0
0
0
0
0
0
0
0
0
0
0
0
0
0
0
0
0
0
0
0
0
0
0
0
0
0
0
0
0
0
0
0
0
0
0
0
0
0
0
0
0
0
0
0
0
0
0
0
0
0
0
0
0
0
0
0
0
0
0
0
0
0
0
0
0
0
0
0
0
0
0
0
0
0
0
0
0
0
0
0
0
0
0
0
0
0
0
0
0
0
0
0
0
-1.57626e-203
1.77731e-190
-4.6841e-184
5.03172e-181
1.54168e-178
2.15268e-176
1.94201e-174
1.28345e-172
6.61561e-171
2.75012e-169
9.34467e-168
2.57074e-166
5.39587e-165
6.46716e-164
-9.48204e-163
-9.3216e-161
-3.79964e-159
-1.17813e-157
-3.10794e-156
-7.28649e-155
-1.55306e-153
-3.05163e-152
-5.58076e-151
-9.56571e-150
-1.54515e-148
-2.36242e-147
-3.43134e-146
-4.74938e-145
-6.28114e-144
-7.95591e-143
-9.6715e-142
-1.13047e-140
-1.27268e-139
-1.38207e-138
-1.44978e-137
-1.47092e-136
-1.44511e-135
-1.3763e-134
-1.27192e-133
-1.1417e-132
-9.96254e-132
-8.45804e-131
-6.99173e-130
-5.63155e-129
-4.42276e-128
-3.3889e-127
-2.53504e-126
-1.85232e-125
-1.32279e-124
-9.23681e-124
-6.30989e-123
-4.21877e-122
-2.76184e-121
-1.77108e-120
-1.11293e-119
-6.85563e-119
-4.14115e-118
-2.45374e-117
-1.42659e-116
-8.14056e-116
-4.56043e-115
-2.50875e-114
-1.35552e-113
-7.195e-113
-3.75242e-112
-1.92314e-111
-9.68687e-111
-4.79586e-110
-2.33393e-109
-1.1165e-108
-5.25007e-108
-2.4265e-107
-1.10216e-106
-4.9189e-106
-2.15635e-105
-9.28151e-105
-3.92027e-104
-1.62359e-103
-6.58633e-103
-2.61333e-102
-1.01218e-101
-3.81592e-101
-1.39441e-100
-4.90696e-100
-1.64509e-99
-5.15242e-99
-1.44599e-98
-3.23231e-98
-2.69963e-98
2.88741e-97
2.64281e-96
1.59564e-95
8.2558e-95
3.92378e-94
1.76337e-93
7.60585e-93
3.17621e-92
1.29135e-91
5.13096e-91
1.99779e-90
7.63785e-90
2.87167e-89
1.06309e-88
3.87884e-88
1.396e-87
4.9592e-87
1.73994e-86
6.03212e-86
2.06731e-85
7.00667e-85
2.34927e-84
7.79484e-84
2.56008e-83
8.325e-83
2.68103e-82
8.5526e-82
2.70311e-81
8.46603e-81
2.62799e-80
8.08662e-80
2.46705e-79
7.46318e-79
2.23905e-78
6.66283e-78
1.96682e-77
5.76012e-77
1.67385e-76
4.82685e-76
1.38142e-75
3.92413e-75
1.10653e-74
3.09762e-74
8.6095e-74
2.37603e-73
6.51163e-73
1.77226e-72
4.7907e-72
1.2863e-71
3.43072e-71
9.09004e-71
2.39283e-70
6.25828e-70
1.62639e-69
4.19997e-69
1.07783e-68
2.74891e-68
6.96794e-68
1.75552e-67
4.39633e-67
1.09441e-66
2.7083e-66
6.66291e-66
1.62968e-65
3.96306e-65
9.58232e-65
2.30378e-64
5.50758e-64
1.30933e-63
3.09543e-63
7.27773e-63
1.70173e-62
3.95749e-62
9.1538e-62
2.10596e-61
4.81925e-61
1.097e-60
2.48396e-60
5.59511e-60
1.25375e-59
2.79491e-59
6.19855e-59
1.3677e-58
3.00252e-58
6.55819e-58
1.42528e-57
3.08208e-57
6.63179e-57
1.41994e-56
3.02535e-56
6.41441e-56
1.3534e-55
2.84182e-55
5.9385e-55
1.23503e-54
2.55631e-54
5.26615e-54
1.07976e-53
2.20357e-53
4.47613e-53
9.05034e-53
1.82148e-52
3.64915e-52
7.27742e-52
1.44475e-51
2.85525e-51
5.61754e-51
1.10029e-50
2.14554e-50
4.1653e-50
8.05091e-50
1.54933e-49
2.96859e-49
5.66339e-49
1.0758e-48
2.03482e-48
3.83238e-48
7.18736e-48
1.34226e-47
2.49623e-47
4.62294e-47
8.52607e-47
1.56598e-46
2.86444e-46
5.21817e-46
9.46744e-46
1.71077e-45
3.07896e-45
5.51927e-45
9.85443e-45
1.75253e-44
3.10448e-44
5.47793e-44
9.62842e-44
1.68583e-43
2.94038e-43
5.10897e-43
8.84327e-43
1.52494e-42
2.61975e-42
4.48381e-42
7.64581e-42
1.29897e-41
2.19878e-41
3.70838e-41
6.23183e-41
1.04349e-40
1.74103e-40
2.8946e-40
4.79558e-40
7.91728e-40
1.30258e-39
2.13568e-39
3.48967e-39
5.68276e-39
9.22304e-39
1.4919e-38
2.40531e-38
3.86525e-38
6.19118e-38
9.88489e-38
1.57321e-37
2.49593e-37
3.94749e-37
6.22399e-37
9.78341e-37
1.53321e-36
2.39561e-36
3.73209e-36
5.7973e-36
8.97952e-36
1.38692e-35
2.13619e-35
3.28121e-35
5.02637e-35
7.67925e-35
1.17016e-34
1.77851e-34
2.69629e-34
4.07756e-34
6.15143e-34
9.25792e-34
1.39006e-33
2.08235e-33
3.11243e-33
4.64179e-33
6.90772e-33
1.02581e-32
1.52018e-32
2.24826e-32
3.31844e-32
4.88851e-32
7.1877e-32
1.05485e-31
1.54522e-31
2.25948e-31
3.29802e-31
4.80549e-31
6.98991e-31
1.015e-30
1.47138e-30
2.1294e-30
3.07657e-30
4.43771e-30
6.39052e-30
9.18753e-30
1.3187e-29
1.88965e-29
2.70331e-29
3.86092e-29
5.50504e-29
7.83611e-29
1.11354e-28
1.57967e-28
2.23707e-28
3.16253e-28
4.46299e-28
6.287e-28
8.84057e-28
1.24087e-27
1.73851e-27
2.43119e-27
3.39348e-27
4.72769e-27
6.57389e-27
9.12341e-27
1.26371e-26
1.74696e-26
2.41025e-26
3.31878e-26
4.56061e-26
6.25453e-26
8.56029e-26
1.16923e-25
1.59378e-25
2.16804e-25
2.9432e-25
3.98733e-25
5.39082e-25
7.2734e-25
9.79334e-25
1.31594e-24
1.76464e-24
2.36152e-24
3.1539e-24
4.20366e-24
5.59158e-24
7.42291e-24
9.83447e-24
1.30038e-23
1.71609e-23
2.2603e-23
2.97136e-23
3.89866e-23
5.10568e-23
6.67389e-23
8.7076e-23
1.13402e-22
1.47421e-22
1.91301e-22
2.47802e-22
3.20431e-22
4.1363e-22
5.33028e-22
6.85734e-22
8.80723e-22
1.1293e-21
1.44569e-21
1.84776e-21
2.35791e-21
3.00421e-21
3.82174e-21
4.85432e-21
6.15655e-21
7.79642e-21
9.85843e-21
1.24474e-20
1.56934e-20
1.9757e-20
2.4837e-20
3.11783e-20
3.90825e-20
4.89205e-20
6.11477e-20
7.63221e-20
9.51263e-20
1.18395e-19
1.47144e-19
1.82612e-19
2.26304e-19
2.80045e-19
3.46047e-19
4.26982e-19
5.26075e-19
6.47213e-19
7.95067e-19
9.75244e-19
1.19446e-18
1.46076e-18
1.78371e-18
2.17475e-18
2.64746e-18
3.21796e-18
3.90535e-18
4.73223e-18
5.72525e-18
6.91583e-18
8.34094e-18
1.00439e-17
1.20757e-17
1.44958e-17
1.73736e-17
2.07904e-17
2.48405e-17
2.96338e-17
3.52979e-17
4.19809e-17
4.98545e-17
5.91171e-17
6.99988e-17
8.27653e-17
9.77237e-17
1.15229e-16
1.35691e-16
1.59585e-16
1.87458e-16
2.19945e-16
2.57783e-16
3.01825e-16
3.53066e-16
4.12666e-16
4.81983e-16
5.62611e-16
6.56433e-16
7.65682e-16
8.93023e-16
1.04166e-15
1.21548e-15
1.41923e-15
1.6588e-15
1.94158e-15
2.27698e-15
2.67723e-15
3.15858e-15
3.74326e-15
4.46267e-15
5.3631e-15
6.51615e-15
8.03797e-15
1.01236e-14
1.3103e-14
1.75253e-14
2.42796e-14
3.47782e-14
5.12513e-14
7.72515e-14
1.18544e-13
1.8474e-13
2.92366e-13
4.70752e-13
7.73329e-13
1.2992e-12
2.23371e-12
3.92362e-12
7.01389e-12
1.26922e-11
2.31189e-11
4.21692e-11
7.66944e-11
1.38631e-10
2.48473e-10
4.40903e-10
7.738e-10
1.34245e-09
2.30165e-09
3.89969e-09
6.52994e-09
1.08081e-08
1.7687e-08
2.86241e-08
4.5825e-08
7.25921e-08
1.13818e-07
1.76682e-07
2.71608e-07
4.13595e-07
6.24017e-07
9.33056e-07
1.38295e-06
2.03228e-06
2.96161e-06
4.28079e-06
6.13831e-06
8.73332e-06
1.23307e-05
1.728e-05
2.40388e-05
3.32014e-05
4.5534e-05
6.20166e-05
8.38936e-05
0.000112733
0.000150496
0.000199619
0.000263104
0.000344625
0.000448647
0.000580555
0.0007468
0.000955052
0.00121437
0.00153537
0.00193041
0.00241377
0.00300184
0.00371329
0.00456921
0.0055933
0.00681195
0.00825431
0.00995238
0.011941
0.0142577
0.0169428
0.0200389
0.0235908
0.0276453
0.0322506
0.0374557
0.0433101
0.0498628
0.0571623
0.0652548
0.0741844
0.0839916
0.0947127
0.106379
0.119016
0.132643
0.147271
0.162903
0.179535
0.197153
0.215735
0.235247
0.255648
0.276889
0.298909
0.321641
0.345011
0.368935
0.393326
0.418091
0.443133
0.468353
0.493649
0.51892
0.544066
0.568988
0.593591
0.617784
0.641481
0.664603
0.687076
0.708835
0.729824
0.749991
0.769297
0.787709
0.805202
0.821762
0.837379
0.852054
0.865793
0.878608
0.890519
0.901549
0.911727
0.921085
0.929658
0.937485
0.944606
0.95106
0.956891
0.96214
0.966848
0.971057
0.974807
0.978136
0.981081
0.983678
0.98596
0.987957
0.9897
0.991215
0.992526
0.993657
0.994627
0.995456
0.996159
0.996751
0.997244
0.997648
0.997977
0.998214
0.998476
)
;

boundaryField
{
    sides
    {
        type            inletOutlet;
        inletValue      uniform 0;
        value           nonuniform List<scalar> 2(0.998476 0);
    }
    empty
    {
        type            empty;
    }
}


// ************************************************************************* //
