/*--------------------------------*- C++ -*----------------------------------*\
| =========                 |                                                 |
| \\      /  F ield         | OpenFOAM: The Open Source CFD Toolbox           |
|  \\    /   O peration     | Version:  v2012                                 |
|   \\  /    A nd           | Website:  www.openfoam.com                      |
|    \\/     M anipulation  |                                                 |
\*---------------------------------------------------------------------------*/
FoamFile
{
    version     2.0;
    format      ascii;
    class       volScalarField;
    location    "4";
    object      T;
}
// * * * * * * * * * * * * * * * * * * * * * * * * * * * * * * * * * * * * * //

dimensions      [0 0 0 1 0 0 0];


internalField   nonuniform List<scalar> 
1000
(
-6.33414e-05
4.3986e-05
-1.96545e-05
3.67623e-05
2.71413e-05
3.62733e-05
5.69637e-05
2.91285e-05
5.05849e-05
-3.14954e-06
-4.69426e-06
-7.45164e-05
-0.000109505
-0.000186356
-0.000250082
-0.000324486
-0.000400597
-0.000462329
-0.00052961
-0.000568753
-0.000608393
-0.000617382
-0.000618325
-0.00059401
-0.000555057
-0.000499849
-0.000428576
-0.00035015
-0.000259669
-0.000169294
-7.43106e-05
1.56294e-05
0.000102187
0.00018073
0.000249798
0.000309295
0.000356336
0.000393307
0.000417865
0.00043279
0.000437431
0.000433758
0.000422827
0.000405618
0.000384121
0.000358751
0.000331494
0.000302691
0.000273701
0.000245034
0.000217288
0.000191074
0.000166459
0.000143954
0.000123417
0.0001051
8.88652e-05
7.46708e-05
6.2428e-05
5.18828e-05
4.29313e-05
3.52417e-05
2.86502e-05
2.28815e-05
1.77629e-05
1.3192e-05
9.12624e-06
5.72243e-06
3.21e-06
2.03521e-06
2.73889e-06
5.98866e-06
1.25115e-05
2.30058e-05
3.81117e-05
5.82747e-05
8.37204e-05
0.000114354
0.000149735
0.000189057
0.000231145
0.000274521
0.000317442
0.00035802
0.000394309
0.000424433
0.000446697
0.000459686
0.000462365
0.000454126
0.000434835
0.000404831
0.000364904
0.000316248
0.000260385
0.000199085
0.000134269
6.79089e-05
1.94027e-06
-6.18264e-05
-0.000121773
-0.000176531
-0.000225014
-0.00026644
-0.000300334
-0.000326511
-0.000345056
-0.000356285
-0.000360708
-0.000358983
-0.000351874
-0.000340204
-0.00032482
-0.000306559
-0.000286218
-0.000264532
-0.000242162
-0.00021968
-0.000197567
-0.000176216
-0.000155928
-0.000136924
-0.000119352
-0.000103295
-8.87815e-05
-7.57968e-05
-6.42901e-05
-5.41848e-05
-4.53858e-05
-3.77867e-05
-3.12747e-05
-2.57359e-05
-2.10588e-05
-1.71366e-05
-1.38695e-05
-1.11658e-05
-8.94232e-06
-7.12502e-06
-5.64855e-06
-4.45593e-06
-3.49806e-06
-2.73299e-06
-2.12522e-06
-1.64495e-06
-1.26742e-06
-9.7215e-07
-7.42368e-07
-5.64424e-07
-4.27286e-07
-3.22095e-07
-2.41784e-07
-1.80746e-07
-1.34566e-07
-9.9781e-08
-7.36932e-08
-5.4212e-08
-3.97258e-08
-2.89986e-08
-2.10878e-08
-1.52775e-08
-1.1027e-08
-7.92986e-09
-5.6819e-09
-4.05659e-09
-2.8859e-09
-2.04583e-09
-1.44527e-09
-1.01747e-09
-7.13869e-10
-4.99164e-10
-3.47865e-10
-2.41627e-10
-1.6728e-10
-1.15434e-10
-7.94022e-11
-5.44399e-11
-3.72111e-11
-2.53522e-11
-1.72206e-11
-1.16611e-11
-7.8716e-12
-5.29847e-12
-3.55523e-12
-2.37847e-12
-1.58682e-12
-1.05529e-12
-6.99608e-13
-4.63174e-13
-3.04412e-13
-2.0117e-13
-1.30593e-13
-8.64293e-14
-5.5015e-14
-3.68458e-14
-2.23683e-14
-1.58207e-14
-8.35972e-15
-7.05633e-15
-2.49422e-15
-3.44797e-15
-1.51806e-16
-2.04719e-15
7.44443e-16
-1.62059e-15
1.06001e-15
-1.57695e-15
1.11526e-15
-1.63209e-15
1.06315e-15
-1.69492e-15
1.00936e-15
-1.7506e-15
9.99519e-16
-1.78537e-15
1.02771e-15
-1.79244e-15
1.08012e-15
-1.79251e-15
1.15189e-15
-1.81871e-15
1.23346e-15
-1.89292e-15
1.30741e-15
-2.0244e-15
1.36271e-15
-2.21693e-15
1.40195e-15
-2.46583e-15
1.43497e-15
-2.75238e-15
1.47326e-15
-3.04728e-15
1.52982e-15
-3.31894e-15
1.6172e-15
-3.53818e-15
1.74182e-15
-3.68059e-15
1.90027e-15
-3.73034e-15
2.07987e-15
-3.6832e-15
2.26055e-15
-3.54609e-15
2.41709e-15
-3.33419e-15
2.5227e-15
-3.06751e-15
2.55383e-15
-2.76725e-15
2.49427e-15
-2.45186e-15
2.33753e-15
-2.13378e-15
2.08785e-15
-1.81819e-15
1.75967e-15
-1.50338e-15
1.37531e-15
-1.18248e-15
9.61343e-16
-8.46162e-16
5.44507e-16
-4.85945e-16
1.47923e-16
-9.70946e-17
-2.11928e-16
3.19445e-16
-5.26869e-16
7.56384e-16
-7.97073e-16
1.20076e-15
-1.0296e-15
1.6358e-15
-1.23586e-15
2.04362e-15
-1.42848e-15
2.4081e-15
-1.61827e-15
2.71756e-15
-1.81181e-15
2.96657e-15
-2.01016e-15
3.15667e-15
-2.20889e-15
3.29581e-15
-2.39927e-15
3.39651e-15
-2.57036e-15
3.47324e-15
-2.71162e-15
3.53935e-15
-2.81525e-15
3.60426e-15
-2.87797e-15
3.67141e-15
-2.90177e-15
3.73748e-15
-2.8935e-15
3.79297e-15
-2.86343e-15
3.82399e-15
-2.82298e-15
3.81506e-15
-2.78223e-15
3.75218e-15
-2.7476e-15
3.62556e-15
-2.72025e-15
3.43159e-15
-2.69562e-15
3.17358e-15
-2.66406e-15
2.8612e-15
-2.61258e-15
2.50877e-15
-2.52737e-15
2.13278e-15
-2.39653e-15
1.74926e-15
-2.2126e-15
1.37144e-15
-1.97431e-15
1.00827e-15
-1.68733e-15
6.63921e-16
-1.36382e-15
3.38473e-16
-1.0208e-15
2.9391e-17
-6.77674e-16
-2.66566e-16
-3.53247e-16
-5.51494e-16
-6.27619e-17
-8.25011e-16
1.84511e-16
-1.08371e-15
3.86641e-16
-1.32147e-15
5.49043e-16
-1.53048e-15
6.8306e-16
-1.70271e-15
8.03364e-16
-1.8315e-15
9.24708e-16
-1.91294e-15
1.05876e-15
-1.94684e-15
1.21168e-15
-1.93712e-15
1.38305e-15
-1.89158e-15
1.56622e-15
-1.82101e-15
1.75002e-15
-1.73773e-15
1.92111e-15
-1.65369e-15
2.06661e-15
-1.57841e-15
2.17614e-15
-1.51705e-15
2.24304e-15
-1.46915e-15
2.26464e-15
-1.42834e-15
2.24165e-15
-1.38323e-15
2.17705e-15
-1.31939e-15
2.07488e-15
-1.22224e-15
1.93903e-15
-1.08002e-15
1.77242e-15
-8.86389e-16
1.57655e-15
-6.41954e-16
1.35144e-15
-3.54471e-16
1.09604e-15
-3.7612e-17
8.08957e-16
2.91352e-16
4.89457e-16
6.14453e-16
1.38523e-16
9.15893e-16
-2.40187e-16
1.18429e-15
-6.39757e-16
1.41388e-15
-1.04994e-15
1.6045e-15
-1.45772e-15
1.76042e-15
-1.84836e-15
1.88844e-15
-2.2069e-15
1.9956e-15
-2.51979e-15
2.08722e-15
-2.77638e-15
2.16552e-15
-2.97012e-15
2.22936e-15
-3.09918e-15
2.27486e-15
-3.16649e-15
2.29689e-15
-3.17912e-15
2.29089e-15
-3.14708e-15
2.25452e-15
-3.08179e-15
2.18884e-15
-2.9943e-15
2.09856e-15
-2.89372e-15
1.99142e-15
-2.78595e-15
1.87684e-15
-2.67312e-15
1.7642e-15
-2.55378e-15
1.66115e-15
-2.42383e-15
1.57239e-15
-2.27795e-15
1.49903e-15
-2.1113e-15
1.43876e-15
-1.92094e-15
1.38648e-15
-1.70672e-15
1.33537e-15
-1.47142e-15
1.27805e-15
-1.2202e-15
1.20765e-15
-9.5948e-16
1.11881e-15
-6.95759e-16
1.00837e-15
-4.34693e-16
8.75964e-16
-1.80646e-16
7.2427e-16
6.31867e-17
5.5892e-16
2.94275e-16
3.87939e-16
5.10113e-16
2.20709e-16
7.07715e-16
6.66032e-17
8.83375e-16
-6.64233e-17
1.0327e-15
-1.72934e-16
1.1508e-15
-2.50524e-16
1.23265e-15
-2.99696e-16
1.27347e-15
-3.23237e-16
1.26937e-15
-3.25367e-16
1.21808e-15
-3.1091e-16
1.11966e-15
-2.84563e-16
9.76989e-16
-2.50247e-16
7.95629e-16
-2.10524e-16
5.83175e-16
-1.66139e-16
3.48153e-16
-1.15905e-16
9.89329e-17
-5.71343e-17
-1.5697e-16
1.33607e-17
-4.13035e-16
9.79309e-17
-6.63454e-16
1.96853e-16
-9.02724e-16
3.07655e-16
-1.12546e-15
4.25251e-16
-1.32658e-15
5.42846e-16
-1.50171e-15
6.53292e-16
-1.64778e-15
7.5051e-16
-1.76343e-15
8.30659e-16
-1.84924e-15
8.92863e-16
-1.90771e-15
9.39405e-16
-1.94306e-15
9.75334e-16
-1.96065e-15
1.00743e-15
-1.96603e-15
1.04262e-15
-1.96374e-15
1.08607e-15
-1.95599e-15
1.13957e-15
-1.94184e-15
1.2008e-15
-1.91737e-15
1.26379e-15
-1.87686e-15
1.32065e-15
-1.81471e-15
1.36395e-15
-1.72751e-15
1.38876e-15
-1.61523e-15
1.3937e-15
-1.48113e-15
1.38036e-15
-1.33034e-15
1.3517e-15
-1.16777e-15
1.30993e-15
-9.96299e-16
1.25504e-15
-8.16046e-16
1.18461e-15
-6.25052e-16
1.09491e-15
-4.21064e-16
9.82772e-16
-2.03543e-16
8.47319e-16
2.50146e-17
6.90733e-16
2.59014e-16
5.17826e-16
4.90935e-16
3.34632e-16
7.13193e-16
1.46705e-16
9.1991e-16
-4.21358e-17
1.10788e-15
-2.30102e-16
1.27639e-15
-4.16701e-16
1.42608e-15
-6.01357e-16
1.55736e-15
-7.82113e-16
1.66929e-15
-9.55132e-16
1.7594e-15
-1.11529e-15
1.82463e-15
-1.25758e-15
1.86268e-15
-1.37855e-15
1.87322e-15
-1.47719e-15
1.85835e-15
-1.55487e-15
1.82222e-15
-1.61461e-15
1.77016e-15
-1.66004e-15
1.7078e-15
-1.6946e-15
1.64044e-15
-1.72106e-15
1.57262e-15
-1.74139e-15
1.50794e-15
-1.75662e-15
1.44869e-15
-1.76659e-15
1.39521e-15
-1.76932e-15
1.34519e-15
-1.76055e-15
1.29334e-15
-1.73377e-15
1.23192e-15
-1.68131e-15
1.1525e-15
-1.59633e-15
1.04837e-15
-1.47513e-15
9.16865e-16
-1.31884e-15
7.6057e-16
-1.13358e-15
5.86744e-16
-9.28942e-16
4.05128e-16
-7.15252e-16
2.25013e-16
-5.00826e-16
5.28343e-17
-2.90395e-16
-1.08757e-16
-8.51834e-17
-2.60289e-16
1.15807e-16
-4.04161e-16
3.14374e-16
-5.43511e-16
5.12125e-16
-6.81351e-16
7.09544e-16
-8.19209e-16
9.04319e-16
-9.54836e-16
1.08909e-15
-1.07995e-15
1.2503e-15
-1.18018e-15
1.37022e-15
-1.23881e-15
1.43256e-15
-1.24334e-15
1.4294e-15
-1.1916e-15
1.36552e-15
-1.09373e-15
1.25737e-15
-9.68514e-16
1.12685e-15
-8.35976e-16
9.93145e-16
-7.10259e-16
8.67058e-16
-5.96469e-16
7.50175e-16
-4.92456e-16
6.38391e-16
-3.93379e-16
5.26603e-16
-2.95633e-16
4.11577e-16
-1.98164e-16
2.92365e-16
-1.01917e-16
1.69865e-16
-9.37514e-18
4.70877e-17
7.51467e-17
-7.05044e-17
1.46044e-16
-1.76619e-16
1.99488e-16
-2.68415e-16
2.38167e-16
-3.5097e-16
2.74084e-16
-4.37954e-16
3.26037e-16
-5.4653e-16
4.11942e-16
-6.88763e-16
5.40072e-16
-8.64613e-16
7.0446e-16
-1.06082e-15
8.87182e-16
-1.2564e-15
1.06623e-15
-1.43172e-15
1.22476e-15
-1.57647e-15
1.35719e-15
-1.69272e-15
1.46926e-15
-1.79156e-15
1.57221e-15
-1.88503e-15
1.67389e-15
-1.97731e-15
1.77175e-15
-2.06048e-15
1.85236e-15
-2.11812e-15
1.89879e-15
-2.1353e-15
1.90141e-15
-2.10844e-15
1.86456e-15
-2.04756e-15
1.80374e-15
-1.96921e-15
1.73551e-15
-1.88571e-15
1.66792e-15
-1.79863e-15
1.59779e-15
-1.70001e-15
1.51479e-15
-1.578e-15
1.40733e-15
-1.42239e-15
1.26749e-15
-1.22894e-15
1.09471e-15
-1.00242e-15
8.978e-16
-7.56364e-16
6.91618e-16
-5.06805e-16
4.88983e-16
-2.6407e-16
2.94887e-16
-3.12406e-17
1.09964e-16
1.88523e-16
-6.07487e-17
3.8517e-16
-2.05653e-16
5.45791e-16
-3.16121e-16
6.67336e-16
-3.98729e-16
7.64941e-16
-4.76783e-16
8.6615e-16
-5.77343e-16
9.94683e-16
-7.12295e-16
1.1577e-15
-8.64799e-16
1.35218e-15
-9.80825e-16
1.60606e-15
-9.35753e-16
2.09047e-15
-3.78377e-16
3.4396e-15
1.83072e-15
7.75194e-15
9.43761e-15
2.17782e-14
3.44736e-14
6.68636e-14
1.1464e-13
2.09156e-13
3.65453e-13
6.49164e-13
1.13306e-12
1.98104e-12
3.43148e-12
5.9254e-12
1.01633e-11
1.73501e-11
2.94439e-11
4.97035e-11
8.34254e-11
1.39254e-10
2.31123e-10
3.81436e-10
6.25909e-10
1.02119e-09
1.65648e-09
2.67141e-09
4.28305e-09
6.82672e-09
1.08169e-08
1.70378e-08
2.66765e-08
4.15185e-08
6.423e-08
9.87658e-08
1.50952e-07
2.2931e-07
3.46219e-07
5.19534e-07
7.74827e-07
1.14846e-06
1.69177e-06
2.47671e-06
3.60339e-06
5.21012e-06
7.48652e-06
1.06907e-05
1.51713e-05
2.1396e-05
2.9987e-05
4.17663e-05
5.78114e-05
7.95238e-05
0.000108713
0.000147697
0.000199422
0.000267603
0.000356889
0.000473052
0.000623198
0.000816009
0.00106201
0.00137383
0.00176656
0.002258
0.00286902
0.00362389
0.00455054
0.00568087
0.00705096
0.00870124
0.0106766
0.0130264
0.0158043
0.0190682
0.0228796
0.0273032
0.0324064
0.038258
0.044928
0.0524853
0.0609977
0.0705295
0.0811406
0.0928848
0.105808
0.119949
0.135332
0.151974
0.169876
0.189028
0.209403
0.230961
0.253646
0.277389
0.302107
0.327701
0.354065
0.381078
0.408612
0.436534
0.464704
0.49298
0.521219
0.549281
0.577027
0.604328
0.631058
0.657103
0.682358
0.706731
0.730141
0.75252
0.773815
0.793984
0.812998
0.830843
0.847515
0.863021
0.877378
0.890613
0.90276
0.91386
0.92396
0.93311
0.941365
0.94878
0.955414
0.961324
0.966567
0.9712
0.975276
0.978849
0.981968
0.98468
0.987029
0.989055
0.990796
0.992286
0.993556
0.994636
0.995549
0.996318
0.996964
0.997504
0.997954
0.998326
0.998632
0.998882
0.999084
0.999244
0.999369
0.999462
0.999525
0.999561
0.99957
0.99955
0.999499
0.999414
0.999288
0.999115
0.998884
0.998585
0.998201
0.997717
0.997112
0.996361
0.995438
0.994311
0.992943
0.991294
0.98932
0.986971
0.984194
0.98093
0.977119
0.972696
0.967593
0.961741
0.955072
0.947514
0.939002
0.92947
0.918859
0.907115
0.894192
0.880051
0.864668
0.848026
0.830124
0.810972
0.790597
0.769039
0.746354
0.722611
0.697893
0.672299
0.645935
0.618922
0.591388
0.563466
0.535296
0.50702
0.478781
0.450719
0.422973
0.395672
0.368942
0.342897
0.317642
0.293269
0.269859
0.24748
0.226185
0.206016
0.187002
0.169157
0.152485
0.136979
0.122623
0.109387
0.0972405
0.0861398
0.0760405
0.0668896
0.0586356
0.0512191
0.0445865
0.0386753
0.0334339
0.0287991
0.024725
0.021149
0.0180337
0.0153175
0.012974
0.0109418
0.00920811
0.00770904
0.0064485
0.00535665
0.00445743
0.00367001
0.003043
0.00247781
0.00205394
0.00164627
0.00137368
0.00107312
0.000914279
0.000681626
0.000610793
0.000415126
)
;

boundaryField
{
    sides
    {
        type            inletOutlet;
        inletValue      uniform 0;
        value           nonuniform List<scalar> 2(0.000415126 0);
    }
    empty
    {
        type            empty;
    }
}


// ************************************************************************* //
