/*--------------------------------*- C++ -*----------------------------------*\
| =========                 |                                                 |
| \\      /  F ield         | OpenFOAM: The Open Source CFD Toolbox           |
|  \\    /   O peration     | Version:  v2012                                 |
|   \\  /    A nd           | Website:  www.openfoam.com                      |
|    \\/     M anipulation  |                                                 |
\*---------------------------------------------------------------------------*/
FoamFile
{
    version     2.0;
    format      ascii;
    class       volScalarField;
    location    "0.005";
    object      mag(U);
}
// * * * * * * * * * * * * * * * * * * * * * * * * * * * * * * * * * * * * * //

dimensions      [0 1 -1 0 0 0 0];


internalField   nonuniform List<scalar> 
100
(
4.0684e-12
4.40974e-12
4.26387e-12
6.20106e-12
9.86831e-12
3.26318e-11
1.40317e-10
6.51473e-10
3.00723e-09
1.35334e-08
5.92662e-08
2.51538e-07
1.0359e-06
4.12367e-06
1.58849e-05
5.89723e-05
0.000211167
0.000726137
0.00239857
0.00757489
0.0228583
0.0655667
0.178408
0.457636
1.10173
2.47082
5.12035
9.59302
16.136
24.7345
35.2675
47.2739
60.5184
74.3765
88.8728
103.41
118.349
132.881
147.314
162.285
176.377
191.527
208.557
222.846
235.193
249.101
263.115
276.415
288.598
300.132
311.085
320.54
328.295
333.998
338.331
342.156
344.815
345.585
343.434
337.618
330.587
325.481
322.595
322.645
324.673
325.51
324.464
322.936
321.307
318.324
316.299
317.587
319.578
320.406
319.584
317.9
316.224
313.957
309.097
300.127
324.533
268.606
117.456
30.933
7.48505
1.42364
0.322597
0.0594321
0.0134147
0.00252175
0.000553754
0.000106139
2.25813e-05
4.36505e-06
9.01759e-07
1.73907e-07
3.49369e-08
6.66625e-09
1.31056e-09
2.14073e-10
)
;

boundaryField
{
    sides
    {
        type            calculated;
        value           nonuniform List<scalar> 2(2.14073e-10 4.0684e-12);
    }
    empty
    {
        type            empty;
    }
}


// ************************************************************************* //
