/*--------------------------------*- C++ -*----------------------------------*\
| =========                 |                                                 |
| \\      /  F ield         | OpenFOAM: The Open Source CFD Toolbox           |
|  \\    /   O peration     | Version:  v2012                                 |
|   \\  /    A nd           | Website:  www.openfoam.com                      |
|    \\/     M anipulation  |                                                 |
\*---------------------------------------------------------------------------*/
FoamFile
{
    version     2.0;
    format      ascii;
    class       volScalarField;
    location    "0.005";
    object      p;
}
// * * * * * * * * * * * * * * * * * * * * * * * * * * * * * * * * * * * * * //

dimensions      [1 -1 -2 0 0 0 0];


internalField   nonuniform List<scalar> 
100
(
100000
100000
100000
100000
100000
100000
100000
100000
100000
100000
100000
100000
100000
100000
100000
100000
99999.9
99999.7
99999.1
99997.3
99991.8
99976.4
99935.6
99833.9
99598.6
99096.1
98116.9
96435.4
94036
90968.8
87356.3
83366.7
79213.8
75010.3
70885.9
66866.8
63097.3
59439.9
56059.9
52832.1
49561.6
46594
44206.9
41097.9
39123.5
37369.7
35786.2
34431.3
33132.9
32143.4
31223.8
30485.6
29955.1
29689.7
29690.2
29711
29777.5
29947.2
30328.8
31061.6
32071.5
32954.1
33370.6
33728.9
33779.3
33765
33734.4
33757.7
33732.5
33626.6
33628.7
33578.1
33390.8
33280.2
33029
32801.4
32635.2
32286.3
31539.7
30189.6
27285.6
18510
13074.6
10882.5
10183.2
10040.6
10007.6
10001.7
10000.3
10000.1
10000
10000
10000
10000
10000
10000
10000
10000
10000
10000
)
;

boundaryField
{
    sides
    {
        type            zeroGradient;
    }
    empty
    {
        type            empty;
    }
}


// ************************************************************************* //
