/*--------------------------------*- C++ -*----------------------------------*\
| =========                 |                                                 |
| \\      /  F ield         | OpenFOAM: The Open Source CFD Toolbox           |
|  \\    /   O peration     | Version:  v2012                                 |
|   \\  /    A nd           | Website:  www.openfoam.com                      |
|    \\/     M anipulation  |                                                 |
\*---------------------------------------------------------------------------*/
FoamFile
{
    version     2.0;
    format      ascii;
    class       surfaceScalarField;
    location    "0.005";
    object      phi;
}
// * * * * * * * * * * * * * * * * * * * * * * * * * * * * * * * * * * * * * //

dimensions      [1 0 -1 0 0 0 0];
oriented        oriented;


internalField   nonuniform List<scalar> 
99
(
1.7188e-11
1.68683e-11
2.08971e-11
2.85425e-11
7.39817e-11
2.96204e-10
1.35823e-09
6.29858e-09
2.85992e-08
1.26415e-07
5.42273e-07
2.25657e-06
9.08919e-06
3.54203e-05
0.000133232
0.000483334
0.00168678
0.00565552
0.0181656
0.0557832
0.163222
0.453637
1.19235
2.94919
6.82128
14.6452
29.006
51.2661
80.3461
115.223
153.761
193.621
232.945
270.281
304.992
336.151
364.966
389.338
409.477
434.273
452.224
463.988
451.335
413.619
387.73
373.984
369.272
368.959
371.392
375.939
378.873
380.676
384.98
389.099
392.283
394.802
394.951
395.875
398.521
399.889
403.555
407.355
410.528
410.773
390.873
325.419
270.793
242.067
232.861
233.051
265.012
300.256
326.346
343.47
348.434
351.47
352.532
351.082
347.77
325.508
169.121
56.098
17.087
4.04425
0.871455
0.17176
0.0365802
0.00715515
0.00152736
0.000301239
6.33891e-05
1.25515e-05
2.59114e-06
5.11276e-07
1.0338e-07
2.0185e-08
3.99089e-09
7.67364e-10
1.46974e-10
)
;

boundaryField
{
    sides
    {
        type            calculated;
        value           nonuniform List<scalar> 2(4.40181e-11 -1.62341e-11);
    }
    empty
    {
        type            empty;
        value           nonuniform List<scalar> 0();
    }
}


// ************************************************************************* //
