/*--------------------------------*- C++ -*----------------------------------*\
| =========                 |                                                 |
| \\      /  F ield         | OpenFOAM: The Open Source CFD Toolbox           |
|  \\    /   O peration     | Version:  v2012                                 |
|   \\  /    A nd           | Website:  www.openfoam.com                      |
|    \\/     M anipulation  |                                                 |
\*---------------------------------------------------------------------------*/
FoamFile
{
    version     2.0;
    format      ascii;
    class       volScalarField;
    location    "0.005";
    object      T;
}
// * * * * * * * * * * * * * * * * * * * * * * * * * * * * * * * * * * * * * //

dimensions      [0 0 0 1 0 0 0];


internalField   nonuniform List<scalar> 
100
(
348.432
348.432
348.432
348.432
348.432
348.432
348.432
348.432
348.432
348.432
348.432
348.432
348.432
348.432
348.432
348.432
348.432
348.432
348.431
348.429
348.424
348.408
348.368
348.266
348.031
347.528
346.544
344.839
342.371
339.151
335.259
330.825
326.049
321.023
315.939
310.529
306.337
299.011
296.585
291.093
280.492
277.258
281.575
300.333
328.923
348.497
359.082
363.387
363.546
361.732
359.826
359.575
358.582
356.228
355.464
355.563
357.556
359.982
362.592
366.17
368.311
368.217
366.777
367.307
376.545
421.019
520.512
609.706
653.964
656.698
614.8
529.911
474.919
443.419
425.357
414.909
410.065
405.749
403.988
379.966
457.199
638.694
645.914
615.401
603.155
600.698
600.131
600.029
600.006
600.001
600
600
600
600
600
600
600
600
600
600
)
;

boundaryField
{
    sides
    {
        type            zeroGradient;
    }
    empty
    {
        type            empty;
    }
}


// ************************************************************************* //
