/*--------------------------------*- C++ -*----------------------------------*\
| =========                 |                                                 |
| \\      /  F ield         | OpenFOAM: The Open Source CFD Toolbox           |
|  \\    /   O peration     | Version:  v2012                                 |
|   \\  /    A nd           | Website:  www.openfoam.com                      |
|    \\/     M anipulation  |                                                 |
\*---------------------------------------------------------------------------*/
FoamFile
{
    version     2.0;
    format      ascii;
    class       volVectorField;
    location    "0.005";
    object      U;
}
// * * * * * * * * * * * * * * * * * * * * * * * * * * * * * * * * * * * * * //

dimensions      [0 1 -1 0 0 0 0];


internalField   nonuniform List<vector> 
100
(
(4.0684e-12 0 0)
(4.40974e-12 0 0)
(4.26387e-12 0 0)
(6.20106e-12 0 0)
(9.86831e-12 0 0)
(3.26318e-11 0 0)
(1.40317e-10 0 0)
(6.51473e-10 0 0)
(3.00723e-09 0 0)
(1.35334e-08 0 0)
(5.92662e-08 0 0)
(2.51538e-07 0 0)
(1.0359e-06 0 0)
(4.12367e-06 0 0)
(1.58849e-05 0 0)
(5.89723e-05 0 0)
(0.000211167 0 0)
(0.000726137 0 0)
(0.00239857 0 0)
(0.00757489 0 0)
(0.0228583 0 0)
(0.0655667 0 0)
(0.178408 0 0)
(0.457636 0 0)
(1.10173 0 0)
(2.47082 0 0)
(5.12035 0 0)
(9.59302 0 0)
(16.136 0 0)
(24.7345 0 0)
(35.2675 0 0)
(47.2739 0 0)
(60.5184 0 0)
(74.3765 0 0)
(88.8728 0 0)
(103.41 0 0)
(118.349 0 0)
(132.881 0 0)
(147.314 0 0)
(162.285 0 0)
(176.377 0 0)
(191.527 0 0)
(208.557 0 0)
(222.846 0 0)
(235.193 0 0)
(249.101 0 0)
(263.115 0 0)
(276.415 0 0)
(288.598 0 0)
(300.132 0 0)
(311.085 0 0)
(320.54 0 0)
(328.295 0 0)
(333.998 0 0)
(338.331 0 0)
(342.156 0 0)
(344.815 0 0)
(345.585 0 0)
(343.434 0 0)
(337.618 0 0)
(330.587 0 0)
(325.481 0 0)
(322.595 0 0)
(322.645 0 0)
(324.673 0 0)
(325.51 0 0)
(324.464 0 0)
(322.936 0 0)
(321.307 0 0)
(318.324 0 0)
(316.299 0 0)
(317.587 0 0)
(319.578 0 0)
(320.406 0 0)
(319.584 0 0)
(317.9 0 0)
(316.224 0 0)
(313.957 0 0)
(309.097 0 0)
(300.127 0 0)
(324.533 0 0)
(268.606 0 0)
(117.456 0 0)
(30.933 0 0)
(7.48505 0 0)
(1.42364 0 0)
(0.322597 0 0)
(0.0594321 0 0)
(0.0134147 0 0)
(0.00252175 0 0)
(0.000553754 0 0)
(0.000106139 0 0)
(2.25813e-05 0 0)
(4.36505e-06 0 0)
(9.01759e-07 0 0)
(1.73907e-07 0 0)
(3.49369e-08 0 0)
(6.66625e-09 0 0)
(1.31056e-09 0 0)
(2.14073e-10 0 0)
)
;

boundaryField
{
    sides
    {
        type            zeroGradient;
    }
    empty
    {
        type            empty;
    }
}


// ************************************************************************* //
