-4.995 	348.432 	100000
-4.994 	348.432 	100000
-4.993 	348.432 	100000
-4.992 	348.432 	100000
-4.991 	348.432 	100000
-4.99 	348.432 	100000
-4.98901 	348.432 	100000
-4.98801 	348.432 	100000
-4.98701 	348.432 	100000
-4.98601 	348.432 	100000
-4.98501 	348.432 	100000
-4.98401 	348.432 	100000
-4.98301 	348.432 	100000
-4.98201 	348.432 	100000
-4.98101 	348.432 	100000
-4.98001 	348.432 	100000
-4.97901 	348.432 	100000
-4.97802 	348.432 	100000
-4.97702 	348.432 	100000
-4.97602 	348.432 	100000
-4.97502 	348.432 	100000
-4.97402 	348.432 	100000
-4.97302 	348.432 	100000
-4.97202 	348.432 	100000
-4.97102 	348.432 	100000
-4.97002 	348.432 	100000
-4.96902 	348.432 	100000
-4.96802 	348.432 	100000
-4.96703 	348.432 	100000
-4.96603 	348.432 	100000
-4.96503 	348.432 	100000
-4.96403 	348.432 	100000
-4.96303 	348.432 	100000
-4.96203 	348.432 	100000
-4.96103 	348.432 	100000
-4.96003 	348.432 	100000
-4.95903 	348.432 	100000
-4.95803 	348.432 	100000
-4.95703 	348.432 	100000
-4.95604 	348.432 	100000
-4.95504 	348.432 	100000
-4.95404 	348.432 	100000
-4.95304 	348.432 	100000
-4.95204 	348.432 	100000
-4.95104 	348.432 	100000
-4.95004 	348.432 	100000
-4.94904 	348.432 	100000
-4.94804 	348.432 	100000
-4.94704 	348.432 	100000
-4.94604 	348.432 	100000
-4.94505 	348.432 	100000
-4.94405 	348.432 	100000
-4.94305 	348.432 	100000
-4.94205 	348.432 	100000
-4.94105 	348.432 	100000
-4.94005 	348.432 	100000
-4.93905 	348.432 	100000
-4.93805 	348.432 	100000
-4.93705 	348.432 	100000
-4.93605 	348.432 	100000
-4.93505 	348.432 	100000
-4.93405 	348.432 	100000
-4.93306 	348.432 	100000
-4.93206 	348.432 	100000
-4.93106 	348.432 	100000
-4.93006 	348.432 	100000
-4.92906 	348.432 	100000
-4.92806 	348.432 	100000
-4.92706 	348.432 	100000
-4.92606 	348.432 	100000
-4.92506 	348.432 	100000
-4.92406 	348.432 	100000
-4.92306 	348.432 	100000
-4.92207 	348.432 	100000
-4.92107 	348.432 	100000
-4.92007 	348.432 	100000
-4.91907 	348.432 	100000
-4.91807 	348.432 	100000
-4.91707 	348.432 	100000
-4.91607 	348.432 	100000
-4.91507 	348.432 	100000
-4.91407 	348.432 	100000
-4.91307 	348.432 	100000
-4.91207 	348.432 	100000
-4.91108 	348.432 	100000
-4.91008 	348.432 	100000
-4.90908 	348.432 	100000
-4.90808 	348.432 	100000
-4.90708 	348.432 	100000
-4.90608 	348.432 	100000
-4.90508 	348.432 	100000
-4.90408 	348.432 	100000
-4.90308 	348.432 	100000
-4.90208 	348.432 	100000
-4.90108 	348.432 	100000
-4.90009 	348.432 	100000
-4.89909 	348.432 	100000
-4.89809 	348.432 	100000
-4.89709 	348.432 	100000
-4.89609 	348.432 	100000
-4.89509 	348.432 	100000
-4.89409 	348.432 	100000
-4.89309 	348.432 	100000
-4.89209 	348.432 	100000
-4.89109 	348.432 	100000
-4.89009 	348.432 	100000
-4.8891 	348.432 	100000
-4.8881 	348.432 	100000
-4.8871 	348.432 	100000
-4.8861 	348.432 	100000
-4.8851 	348.432 	100000
-4.8841 	348.432 	100000
-4.8831 	348.432 	100000
-4.8821 	348.432 	100000
-4.8811 	348.432 	100000
-4.8801 	348.432 	100000
-4.8791 	348.432 	100000
-4.87811 	348.432 	100000
-4.87711 	348.432 	100000
-4.87611 	348.432 	100000
-4.87511 	348.432 	100000
-4.87411 	348.432 	100000
-4.87311 	348.432 	100000
-4.87211 	348.432 	100000
-4.87111 	348.432 	100000
-4.87011 	348.432 	100000
-4.86911 	348.432 	100000
-4.86811 	348.432 	100000
-4.86712 	348.432 	100000
-4.86612 	348.432 	100000
-4.86512 	348.432 	100000
-4.86412 	348.432 	100000
-4.86312 	348.432 	100000
-4.86212 	348.432 	100000
-4.86112 	348.432 	100000
-4.86012 	348.432 	100000
-4.85912 	348.432 	100000
-4.85812 	348.432 	100000
-4.85712 	348.432 	100000
-4.85613 	348.432 	100000
-4.85513 	348.432 	100000
-4.85413 	348.432 	100000
-4.85313 	348.432 	100000
-4.85213 	348.432 	100000
-4.85113 	348.432 	100000
-4.85013 	348.432 	100000
-4.84913 	348.432 	100000
-4.84813 	348.432 	100000
-4.84713 	348.432 	100000
-4.84613 	348.432 	100000
-4.84514 	348.432 	100000
-4.84414 	348.432 	100000
-4.84314 	348.432 	100000
-4.84214 	348.432 	100000
-4.84114 	348.432 	100000
-4.84014 	348.432 	100000
-4.83914 	348.432 	100000
-4.83814 	348.432 	100000
-4.83714 	348.432 	100000
-4.83614 	348.432 	100000
-4.83514 	348.432 	100000
-4.83414 	348.432 	100000
-4.83315 	348.432 	100000
-4.83215 	348.432 	100000
-4.83115 	348.432 	100000
-4.83015 	348.432 	100000
-4.82915 	348.432 	100000
-4.82815 	348.432 	100000
-4.82715 	348.432 	100000
-4.82615 	348.432 	100000
-4.82515 	348.432 	100000
-4.82415 	348.432 	100000
-4.82315 	348.432 	100000
-4.82216 	348.432 	100000
-4.82116 	348.432 	100000
-4.82016 	348.432 	100000
-4.81916 	348.432 	100000
-4.81816 	348.432 	100000
-4.81716 	348.432 	100000
-4.81616 	348.432 	100000
-4.81516 	348.432 	100000
-4.81416 	348.432 	100000
-4.81316 	348.432 	100000
-4.81216 	348.432 	100000
-4.81117 	348.432 	100000
-4.81017 	348.432 	100000
-4.80917 	348.432 	100000
-4.80817 	348.432 	100000
-4.80717 	348.432 	100000
-4.80617 	348.432 	100000
-4.80517 	348.432 	100000
-4.80417 	348.432 	100000
-4.80317 	348.432 	100000
-4.80217 	348.432 	100000
-4.80117 	348.432 	100000
-4.80018 	348.432 	100000
-4.79918 	348.432 	100000
-4.79818 	348.432 	100000
-4.79718 	348.432 	100000
-4.79618 	348.432 	100000
-4.79518 	348.432 	100000
-4.79418 	348.432 	100000
-4.79318 	348.432 	100000
-4.79218 	348.432 	100000
-4.79118 	348.432 	100000
-4.79018 	348.432 	100000
-4.78919 	348.432 	100000
-4.78819 	348.432 	100000
-4.78719 	348.432 	100000
-4.78619 	348.432 	100000
-4.78519 	348.432 	100000
-4.78419 	348.432 	100000
-4.78319 	348.432 	100000
-4.78219 	348.432 	100000
-4.78119 	348.432 	100000
-4.78019 	348.432 	100000
-4.77919 	348.432 	100000
-4.7782 	348.432 	100000
-4.7772 	348.432 	100000
-4.7762 	348.432 	100000
-4.7752 	348.432 	100000
-4.7742 	348.432 	100000
-4.7732 	348.432 	100000
-4.7722 	348.432 	100000
-4.7712 	348.432 	100000
-4.7702 	348.432 	100000
-4.7692 	348.432 	100000
-4.7682 	348.432 	100000
-4.76721 	348.432 	100000
-4.76621 	348.432 	100000
-4.76521 	348.432 	100000
-4.76421 	348.432 	100000
-4.76321 	348.432 	100000
-4.76221 	348.432 	100000
-4.76121 	348.432 	100000
-4.76021 	348.432 	100000
-4.75921 	348.432 	100000
-4.75821 	348.432 	100000
-4.75721 	348.432 	100000
-4.75622 	348.432 	100000
-4.75522 	348.432 	100000
-4.75422 	348.432 	100000
-4.75322 	348.432 	100000
-4.75222 	348.432 	100000
-4.75122 	348.432 	100000
-4.75022 	348.432 	100000
-4.74922 	348.432 	100000
-4.74822 	348.432 	100000
-4.74722 	348.432 	100000
-4.74622 	348.432 	100000
-4.74523 	348.432 	100000
-4.74423 	348.432 	100000
-4.74323 	348.432 	100000
-4.74223 	348.432 	100000
-4.74123 	348.432 	100000
-4.74023 	348.432 	100000
-4.73923 	348.432 	100000
-4.73823 	348.432 	100000
-4.73723 	348.432 	100000
-4.73623 	348.432 	100000
-4.73523 	348.432 	100000
-4.73423 	348.432 	100000
-4.73324 	348.432 	100000
-4.73224 	348.432 	100000
-4.73124 	348.432 	100000
-4.73024 	348.432 	100000
-4.72924 	348.432 	100000
-4.72824 	348.432 	100000
-4.72724 	348.432 	100000
-4.72624 	348.432 	100000
-4.72524 	348.432 	100000
-4.72424 	348.432 	100000
-4.72324 	348.432 	100000
-4.72225 	348.432 	100000
-4.72125 	348.432 	100000
-4.72025 	348.432 	100000
-4.71925 	348.432 	100000
-4.71825 	348.432 	100000
-4.71725 	348.432 	100000
-4.71625 	348.432 	100000
-4.71525 	348.432 	100000
-4.71425 	348.432 	100000
-4.71325 	348.432 	100000
-4.71225 	348.432 	100000
-4.71126 	348.432 	100000
-4.71026 	348.432 	100000
-4.70926 	348.432 	100000
-4.70826 	348.432 	100000
-4.70726 	348.432 	100000
-4.70626 	348.432 	100000
-4.70526 	348.432 	100000
-4.70426 	348.432 	100000
-4.70326 	348.432 	100000
-4.70226 	348.432 	100000
-4.70126 	348.432 	100000
-4.70027 	348.432 	100000
-4.69927 	348.432 	100000
-4.69827 	348.432 	100000
-4.69727 	348.432 	100000
-4.69627 	348.432 	100000
-4.69527 	348.432 	100000
-4.69427 	348.432 	100000
-4.69327 	348.432 	100000
-4.69227 	348.432 	100000
-4.69127 	348.432 	100000
-4.69027 	348.432 	100000
-4.68928 	348.432 	100000
-4.68828 	348.432 	100000
-4.68728 	348.432 	100000
-4.68628 	348.432 	100000
-4.68528 	348.432 	100000
-4.68428 	348.432 	100000
-4.68328 	348.432 	100000
-4.68228 	348.432 	100000
-4.68128 	348.432 	100000
-4.68028 	348.432 	100000
-4.67928 	348.432 	100000
-4.67829 	348.432 	100000
-4.67729 	348.432 	100000
-4.67629 	348.432 	100000
-4.67529 	348.432 	100000
-4.67429 	348.432 	100000
-4.67329 	348.432 	100000
-4.67229 	348.432 	100000
-4.67129 	348.432 	100000
-4.67029 	348.432 	100000
-4.66929 	348.432 	100000
-4.66829 	348.432 	100000
-4.6673 	348.432 	100000
-4.6663 	348.432 	100000
-4.6653 	348.432 	100000
-4.6643 	348.432 	100000
-4.6633 	348.432 	100000
-4.6623 	348.432 	100000
-4.6613 	348.432 	100000
-4.6603 	348.432 	100000
-4.6593 	348.432 	100000
-4.6583 	348.432 	100000
-4.6573 	348.432 	100000
-4.65631 	348.432 	100000
-4.65531 	348.432 	100000
-4.65431 	348.432 	100000
-4.65331 	348.432 	100000
-4.65231 	348.432 	100000
-4.65131 	348.432 	100000
-4.65031 	348.432 	100000
-4.64931 	348.432 	100000
-4.64831 	348.432 	100000
-4.64731 	348.432 	100000
-4.64631 	348.432 	100000
-4.64532 	348.432 	100000
-4.64432 	348.432 	100000
-4.64332 	348.432 	100000
-4.64232 	348.432 	100000
-4.64132 	348.432 	100000
-4.64032 	348.432 	100000
-4.63932 	348.432 	100000
-4.63832 	348.432 	100000
-4.63732 	348.432 	100000
-4.63632 	348.432 	100000
-4.63532 	348.432 	100000
-4.63432 	348.432 	100000
-4.63333 	348.432 	100000
-4.63233 	348.432 	100000
-4.63133 	348.432 	100000
-4.63033 	348.432 	100000
-4.62933 	348.432 	100000
-4.62833 	348.432 	100000
-4.62733 	348.432 	100000
-4.62633 	348.432 	100000
-4.62533 	348.432 	100000
-4.62433 	348.432 	100000
-4.62333 	348.432 	100000
-4.62234 	348.432 	100000
-4.62134 	348.432 	100000
-4.62034 	348.432 	100000
-4.61934 	348.432 	100000
-4.61834 	348.432 	100000
-4.61734 	348.432 	100000
-4.61634 	348.432 	100000
-4.61534 	348.432 	100000
-4.61434 	348.432 	100000
-4.61334 	348.432 	100000
-4.61234 	348.432 	100000
-4.61135 	348.432 	100000
-4.61035 	348.432 	100000
-4.60935 	348.432 	100000
-4.60835 	348.432 	100000
-4.60735 	348.432 	100000
-4.60635 	348.432 	100000
-4.60535 	348.432 	100000
-4.60435 	348.432 	100000
-4.60335 	348.432 	100000
-4.60235 	348.432 	100000
-4.60135 	348.432 	100000
-4.60036 	348.432 	100000
-4.59936 	348.432 	100000
-4.59836 	348.432 	100000
-4.59736 	348.432 	100000
-4.59636 	348.432 	100000
-4.59536 	348.432 	100000
-4.59436 	348.432 	100000
-4.59336 	348.432 	100000
-4.59236 	348.432 	100000
-4.59136 	348.432 	100000
-4.59036 	348.432 	100000
-4.58937 	348.432 	100000
-4.58837 	348.432 	100000
-4.58737 	348.432 	100000
-4.58637 	348.432 	100000
-4.58537 	348.432 	100000
-4.58437 	348.432 	100000
-4.58337 	348.432 	100000
-4.58237 	348.432 	100000
-4.58137 	348.432 	100000
-4.58037 	348.432 	100000
-4.57937 	348.432 	100000
-4.57838 	348.432 	100000
-4.57738 	348.432 	100000
-4.57638 	348.432 	100000
-4.57538 	348.432 	100000
-4.57438 	348.432 	100000
-4.57338 	348.432 	100000
-4.57238 	348.432 	100000
-4.57138 	348.432 	100000
-4.57038 	348.432 	100000
-4.56938 	348.432 	100000
-4.56838 	348.432 	100000
-4.56739 	348.432 	100000
-4.56639 	348.432 	100000
-4.56539 	348.432 	100000
-4.56439 	348.432 	100000
-4.56339 	348.432 	100000
-4.56239 	348.432 	100000
-4.56139 	348.432 	100000
-4.56039 	348.432 	100000
-4.55939 	348.432 	100000
-4.55839 	348.432 	100000
-4.55739 	348.432 	100000
-4.5564 	348.432 	100000
-4.5554 	348.432 	100000
-4.5544 	348.432 	100000
-4.5534 	348.432 	100000
-4.5524 	348.432 	100000
-4.5514 	348.432 	100000
-4.5504 	348.432 	100000
-4.5494 	348.432 	100000
-4.5484 	348.432 	100000
-4.5474 	348.432 	100000
-4.5464 	348.432 	100000
-4.54541 	348.432 	100000
-4.54441 	348.432 	100000
-4.54341 	348.432 	100000
-4.54241 	348.432 	100000
-4.54141 	348.432 	100000
-4.54041 	348.432 	100000
-4.53941 	348.432 	100000
-4.53841 	348.432 	100000
-4.53741 	348.432 	100000
-4.53641 	348.432 	100000
-4.53541 	348.432 	100000
-4.53441 	348.432 	100000
-4.53342 	348.432 	100000
-4.53242 	348.432 	100000
-4.53142 	348.432 	100000
-4.53042 	348.432 	100000
-4.52942 	348.432 	100000
-4.52842 	348.432 	100000
-4.52742 	348.432 	100000
-4.52642 	348.432 	100000
-4.52542 	348.432 	100000
-4.52442 	348.432 	100000
-4.52342 	348.432 	100000
-4.52243 	348.432 	100000
-4.52143 	348.432 	100000
-4.52043 	348.432 	100000
-4.51943 	348.432 	100000
-4.51843 	348.432 	100000
-4.51743 	348.432 	100000
-4.51643 	348.432 	100000
-4.51543 	348.432 	100000
-4.51443 	348.432 	100000
-4.51343 	348.432 	100000
-4.51243 	348.432 	100000
-4.51144 	348.432 	100000
-4.51044 	348.432 	100000
-4.50944 	348.432 	100000
-4.50844 	348.432 	100000
-4.50744 	348.432 	100000
-4.50644 	348.432 	100000
-4.50544 	348.432 	100000
-4.50444 	348.432 	100000
-4.50344 	348.432 	100000
-4.50244 	348.432 	100000
-4.50144 	348.432 	100000
-4.50045 	348.432 	100000
-4.49945 	348.432 	100000
-4.49845 	348.432 	100000
-4.49745 	348.432 	100000
-4.49645 	348.432 	100000
-4.49545 	348.432 	100000
-4.49445 	348.432 	100000
-4.49345 	348.432 	100000
-4.49245 	348.432 	100000
-4.49145 	348.432 	100000
-4.49045 	348.432 	100000
-4.48946 	348.432 	100000
-4.48846 	348.432 	100000
-4.48746 	348.432 	100000
-4.48646 	348.432 	100000
-4.48546 	348.432 	100000
-4.48446 	348.432 	100000
-4.48346 	348.432 	100000
-4.48246 	348.432 	100000
-4.48146 	348.432 	100000
-4.48046 	348.432 	100000
-4.47946 	348.432 	100000
-4.47847 	348.432 	100000
-4.47747 	348.432 	100000
-4.47647 	348.432 	100000
-4.47547 	348.432 	100000
-4.47447 	348.432 	100000
-4.47347 	348.432 	100000
-4.47247 	348.432 	100000
-4.47147 	348.432 	100000
-4.47047 	348.432 	100000
-4.46947 	348.432 	100000
-4.46847 	348.432 	100000
-4.46748 	348.432 	100000
-4.46648 	348.432 	100000
-4.46548 	348.432 	100000
-4.46448 	348.432 	100000
-4.46348 	348.432 	100000
-4.46248 	348.432 	100000
-4.46148 	348.432 	100000
-4.46048 	348.432 	100000
-4.45948 	348.432 	100000
-4.45848 	348.432 	100000
-4.45748 	348.432 	100000
-4.45649 	348.432 	100000
-4.45549 	348.432 	100000
-4.45449 	348.432 	100000
-4.45349 	348.432 	100000
-4.45249 	348.432 	100000
-4.45149 	348.432 	100000
-4.45049 	348.432 	100000
-4.44949 	348.432 	100000
-4.44849 	348.432 	100000
-4.44749 	348.432 	100000
-4.44649 	348.432 	100000
-4.4455 	348.432 	100000
-4.4445 	348.432 	100000
-4.4435 	348.432 	100000
-4.4425 	348.432 	100000
-4.4415 	348.432 	100000
-4.4405 	348.432 	100000
-4.4395 	348.432 	100000
-4.4385 	348.432 	100000
-4.4375 	348.432 	100000
-4.4365 	348.432 	100000
-4.4355 	348.432 	100000
-4.4345 	348.432 	100000
-4.43351 	348.432 	100000
-4.43251 	348.432 	100000
-4.43151 	348.432 	100000
-4.43051 	348.432 	100000
-4.42951 	348.432 	100000
-4.42851 	348.432 	100000
-4.42751 	348.432 	100000
-4.42651 	348.432 	100000
-4.42551 	348.432 	100000
-4.42451 	348.432 	100000
-4.42351 	348.432 	100000
-4.42252 	348.432 	100000
-4.42152 	348.432 	100000
-4.42052 	348.432 	100000
-4.41952 	348.432 	100000
-4.41852 	348.432 	100000
-4.41752 	348.432 	100000
-4.41652 	348.432 	100000
-4.41552 	348.432 	100000
-4.41452 	348.432 	100000
-4.41352 	348.432 	100000
-4.41252 	348.432 	100000
-4.41153 	348.432 	100000
-4.41053 	348.432 	100000
-4.40953 	348.432 	100000
-4.40853 	348.432 	100000
-4.40753 	348.432 	100000
-4.40653 	348.432 	100000
-4.40553 	348.432 	100000
-4.40453 	348.432 	100000
-4.40353 	348.432 	100000
-4.40253 	348.432 	100000
-4.40153 	348.432 	100000
-4.40054 	348.432 	100000
-4.39954 	348.432 	100000
-4.39854 	348.432 	100000
-4.39754 	348.432 	100000
-4.39654 	348.432 	100000
-4.39554 	348.432 	100000
-4.39454 	348.432 	100000
-4.39354 	348.432 	100000
-4.39254 	348.432 	100000
-4.39154 	348.432 	100000
-4.39054 	348.432 	100000
-4.38955 	348.432 	100000
-4.38855 	348.432 	100000
-4.38755 	348.432 	100000
-4.38655 	348.432 	100000
-4.38555 	348.432 	100000
-4.38455 	348.432 	100000
-4.38355 	348.432 	100000
-4.38255 	348.432 	100000
-4.38155 	348.432 	100000
-4.38055 	348.432 	100000
-4.37955 	348.432 	100000
-4.37856 	348.432 	100000
-4.37756 	348.432 	100000
-4.37656 	348.432 	100000
-4.37556 	348.432 	100000
-4.37456 	348.432 	100000
-4.37356 	348.432 	100000
-4.37256 	348.432 	100000
-4.37156 	348.432 	100000
-4.37056 	348.432 	100000
-4.36956 	348.432 	100000
-4.36856 	348.432 	100000
-4.36757 	348.432 	100000
-4.36657 	348.432 	100000
-4.36557 	348.432 	100000
-4.36457 	348.432 	100000
-4.36357 	348.432 	100000
-4.36257 	348.432 	100000
-4.36157 	348.432 	100000
-4.36057 	348.432 	100000
-4.35957 	348.432 	100000
-4.35857 	348.432 	100000
-4.35757 	348.432 	100000
-4.35658 	348.432 	100000
-4.35558 	348.432 	100000
-4.35458 	348.432 	100000
-4.35358 	348.432 	100000
-4.35258 	348.432 	100000
-4.35158 	348.432 	100000
-4.35058 	348.432 	100000
-4.34958 	348.432 	100000
-4.34858 	348.432 	100000
-4.34758 	348.432 	100000
-4.34658 	348.432 	100000
-4.34559 	348.432 	100000
-4.34459 	348.432 	100000
-4.34359 	348.432 	100000
-4.34259 	348.432 	100000
-4.34159 	348.432 	100000
-4.34059 	348.432 	100000
-4.33959 	348.432 	100000
-4.33859 	348.432 	100000
-4.33759 	348.432 	100000
-4.33659 	348.432 	100000
-4.33559 	348.432 	100000
-4.33459 	348.432 	100000
-4.3336 	348.432 	100000
-4.3326 	348.432 	100000
-4.3316 	348.432 	100000
-4.3306 	348.432 	100000
-4.3296 	348.432 	100000
-4.3286 	348.432 	100000
-4.3276 	348.432 	100000
-4.3266 	348.432 	100000
-4.3256 	348.432 	100000
-4.3246 	348.432 	100000
-4.3236 	348.432 	100000
-4.32261 	348.432 	100000
-4.32161 	348.432 	100000
-4.32061 	348.432 	100000
-4.31961 	348.432 	100000
-4.31861 	348.432 	100000
-4.31761 	348.432 	100000
-4.31661 	348.432 	100000
-4.31561 	348.432 	100000
-4.31461 	348.432 	100000
-4.31361 	348.432 	100000
-4.31261 	348.432 	100000
-4.31162 	348.432 	100000
-4.31062 	348.432 	100000
-4.30962 	348.432 	100000
-4.30862 	348.432 	100000
-4.30762 	348.432 	100000
-4.30662 	348.432 	100000
-4.30562 	348.432 	100000
-4.30462 	348.432 	100000
-4.30362 	348.432 	100000
-4.30262 	348.432 	100000
-4.30162 	348.432 	100000
-4.30063 	348.432 	100000
-4.29963 	348.432 	100000
-4.29863 	348.432 	100000
-4.29763 	348.432 	100000
-4.29663 	348.432 	100000
-4.29563 	348.432 	100000
-4.29463 	348.432 	100000
-4.29363 	348.432 	100000
-4.29263 	348.432 	100000
-4.29163 	348.432 	100000
-4.29063 	348.432 	100000
-4.28964 	348.432 	100000
-4.28864 	348.432 	100000
-4.28764 	348.432 	100000
-4.28664 	348.432 	100000
-4.28564 	348.432 	100000
-4.28464 	348.432 	100000
-4.28364 	348.432 	100000
-4.28264 	348.432 	100000
-4.28164 	348.432 	100000
-4.28064 	348.432 	100000
-4.27964 	348.432 	100000
-4.27865 	348.432 	100000
-4.27765 	348.432 	100000
-4.27665 	348.432 	100000
-4.27565 	348.432 	100000
-4.27465 	348.432 	100000
-4.27365 	348.432 	100000
-4.27265 	348.432 	100000
-4.27165 	348.432 	100000
-4.27065 	348.432 	100000
-4.26965 	348.432 	100000
-4.26865 	348.432 	100000
-4.26766 	348.432 	100000
-4.26666 	348.432 	100000
-4.26566 	348.432 	100000
-4.26466 	348.432 	100000
-4.26366 	348.432 	100000
-4.26266 	348.432 	100000
-4.26166 	348.432 	100000
-4.26066 	348.432 	100000
-4.25966 	348.432 	100000
-4.25866 	348.432 	100000
-4.25766 	348.432 	100000
-4.25667 	348.432 	100000
-4.25567 	348.432 	100000
-4.25467 	348.432 	100000
-4.25367 	348.432 	100000
-4.25267 	348.432 	100000
-4.25167 	348.432 	100000
-4.25067 	348.432 	100000
-4.24967 	348.432 	100000
-4.24867 	348.432 	100000
-4.24767 	348.432 	100000
-4.24667 	348.432 	100000
-4.24568 	348.432 	100000
-4.24468 	348.432 	100000
-4.24368 	348.432 	100000
-4.24268 	348.432 	100000
-4.24168 	348.432 	100000
-4.24068 	348.432 	100000
-4.23968 	348.432 	100000
-4.23868 	348.432 	100000
-4.23768 	348.432 	100000
-4.23668 	348.432 	100000
-4.23568 	348.432 	100000
-4.23468 	348.432 	100000
-4.23369 	348.432 	100000
-4.23269 	348.432 	100000
-4.23169 	348.432 	100000
-4.23069 	348.432 	100000
-4.22969 	348.432 	100000
-4.22869 	348.432 	100000
-4.22769 	348.432 	100000
-4.22669 	348.432 	100000
-4.22569 	348.432 	100000
-4.22469 	348.432 	100000
-4.22369 	348.432 	100000
-4.2227 	348.432 	100000
-4.2217 	348.432 	100000
-4.2207 	348.432 	100000
-4.2197 	348.432 	100000
-4.2187 	348.432 	100000
-4.2177 	348.432 	100000
-4.2167 	348.432 	100000
-4.2157 	348.432 	100000
-4.2147 	348.432 	100000
-4.2137 	348.432 	100000
-4.2127 	348.432 	100000
-4.21171 	348.432 	100000
-4.21071 	348.432 	100000
-4.20971 	348.432 	100000
-4.20871 	348.432 	100000
-4.20771 	348.432 	100000
-4.20671 	348.432 	100000
-4.20571 	348.432 	100000
-4.20471 	348.432 	100000
-4.20371 	348.432 	100000
-4.20271 	348.432 	100000
-4.20171 	348.432 	100000
-4.20072 	348.432 	100000
-4.19972 	348.432 	100000
-4.19872 	348.432 	100000
-4.19772 	348.432 	100000
-4.19672 	348.432 	100000
-4.19572 	348.432 	100000
-4.19472 	348.432 	100000
-4.19372 	348.432 	100000
-4.19272 	348.432 	100000
-4.19172 	348.432 	100000
-4.19072 	348.432 	100000
-4.18973 	348.432 	100000
-4.18873 	348.432 	100000
-4.18773 	348.432 	100000
-4.18673 	348.432 	100000
-4.18573 	348.432 	100000
-4.18473 	348.432 	100000
-4.18373 	348.432 	100000
-4.18273 	348.432 	100000
-4.18173 	348.432 	100000
-4.18073 	348.432 	100000
-4.17973 	348.432 	100000
-4.17874 	348.432 	100000
-4.17774 	348.432 	100000
-4.17674 	348.432 	100000
-4.17574 	348.432 	100000
-4.17474 	348.432 	100000
-4.17374 	348.432 	100000
-4.17274 	348.432 	100000
-4.17174 	348.432 	100000
-4.17074 	348.432 	100000
-4.16974 	348.432 	100000
-4.16874 	348.432 	100000
-4.16775 	348.432 	100000
-4.16675 	348.432 	100000
-4.16575 	348.432 	100000
-4.16475 	348.432 	100000
-4.16375 	348.432 	100000
-4.16275 	348.432 	100000
-4.16175 	348.432 	100000
-4.16075 	348.432 	100000
-4.15975 	348.432 	100000
-4.15875 	348.432 	100000
-4.15775 	348.432 	100000
-4.15676 	348.432 	100000
-4.15576 	348.432 	100000
-4.15476 	348.432 	100000
-4.15376 	348.432 	100000
-4.15276 	348.432 	100000
-4.15176 	348.432 	100000
-4.15076 	348.432 	100000
-4.14976 	348.432 	100000
-4.14876 	348.432 	100000
-4.14776 	348.432 	100000
-4.14676 	348.432 	100000
-4.14577 	348.432 	100000
-4.14477 	348.432 	100000
-4.14377 	348.432 	100000
-4.14277 	348.432 	100000
-4.14177 	348.432 	100000
-4.14077 	348.432 	100000
-4.13977 	348.432 	100000
-4.13877 	348.432 	100000
-4.13777 	348.432 	100000
-4.13677 	348.432 	100000
-4.13577 	348.432 	100000
-4.13477 	348.432 	100000
-4.13378 	348.432 	100000
-4.13278 	348.432 	100000
-4.13178 	348.432 	100000
-4.13078 	348.432 	100000
-4.12978 	348.432 	100000
-4.12878 	348.432 	100000
-4.12778 	348.432 	100000
-4.12678 	348.432 	100000
-4.12578 	348.432 	100000
-4.12478 	348.432 	100000
-4.12378 	348.432 	100000
-4.12279 	348.432 	100000
-4.12179 	348.432 	100000
-4.12079 	348.432 	100000
-4.11979 	348.432 	100000
-4.11879 	348.432 	100000
-4.11779 	348.432 	100000
-4.11679 	348.432 	100000
-4.11579 	348.432 	100000
-4.11479 	348.432 	100000
-4.11379 	348.432 	100000
-4.11279 	348.432 	100000
-4.1118 	348.432 	100000
-4.1108 	348.432 	100000
-4.1098 	348.432 	100000
-4.1088 	348.432 	100000
-4.1078 	348.432 	100000
-4.1068 	348.432 	100000
-4.1058 	348.432 	100000
-4.1048 	348.432 	100000
-4.1038 	348.432 	100000
-4.1028 	348.432 	100000
-4.1018 	348.432 	100000
-4.10081 	348.432 	100000
-4.09981 	348.432 	100000
-4.09881 	348.432 	100000
-4.09781 	348.432 	100000
-4.09681 	348.432 	100000
-4.09581 	348.432 	100000
-4.09481 	348.432 	100000
-4.09381 	348.432 	100000
-4.09281 	348.432 	100000
-4.09181 	348.432 	100000
-4.09081 	348.432 	100000
-4.08982 	348.432 	100000
-4.08882 	348.432 	100000
-4.08782 	348.432 	100000
-4.08682 	348.432 	100000
-4.08582 	348.432 	100000
-4.08482 	348.432 	100000
-4.08382 	348.432 	100000
-4.08282 	348.432 	100000
-4.08182 	348.432 	100000
-4.08082 	348.432 	100000
-4.07982 	348.432 	100000
-4.07883 	348.432 	100000
-4.07783 	348.432 	100000
-4.07683 	348.432 	100000
-4.07583 	348.432 	100000
-4.07483 	348.432 	100000
-4.07383 	348.432 	100000
-4.07283 	348.432 	100000
-4.07183 	348.432 	100000
-4.07083 	348.432 	100000
-4.06983 	348.432 	100000
-4.06883 	348.432 	100000
-4.06784 	348.432 	100000
-4.06684 	348.432 	100000
-4.06584 	348.432 	100000
-4.06484 	348.432 	100000
-4.06384 	348.432 	100000
-4.06284 	348.432 	100000
-4.06184 	348.432 	100000
-4.06084 	348.432 	100000
-4.05984 	348.432 	100000
-4.05884 	348.432 	100000
-4.05784 	348.432 	100000
-4.05685 	348.432 	100000
-4.05585 	348.432 	100000
-4.05485 	348.432 	100000
-4.05385 	348.432 	100000
-4.05285 	348.432 	100000
-4.05185 	348.432 	100000
-4.05085 	348.432 	100000
-4.04985 	348.432 	100000
-4.04885 	348.432 	100000
-4.04785 	348.432 	100000
-4.04685 	348.432 	100000
-4.04586 	348.432 	100000
-4.04486 	348.432 	100000
-4.04386 	348.432 	100000
-4.04286 	348.432 	100000
-4.04186 	348.432 	100000
-4.04086 	348.432 	100000
-4.03986 	348.432 	100000
-4.03886 	348.432 	100000
-4.03786 	348.432 	100000
-4.03686 	348.432 	100000
-4.03586 	348.432 	100000
-4.03486 	348.432 	100000
-4.03387 	348.432 	100000
-4.03287 	348.432 	100000
-4.03187 	348.432 	100000
-4.03087 	348.432 	100000
-4.02987 	348.432 	100000
-4.02887 	348.432 	100000
-4.02787 	348.432 	100000
-4.02687 	348.432 	100000
-4.02587 	348.432 	100000
-4.02487 	348.432 	100000
-4.02387 	348.432 	100000
-4.02288 	348.432 	100000
-4.02188 	348.432 	100000
-4.02088 	348.432 	100000
-4.01988 	348.432 	100000
-4.01888 	348.432 	100000
-4.01788 	348.432 	100000
-4.01688 	348.432 	100000
-4.01588 	348.432 	100000
-4.01488 	348.432 	100000
-4.01388 	348.432 	100000
-4.01288 	348.432 	100000
-4.01189 	348.432 	100000
-4.01089 	348.432 	100000
-4.00989 	348.432 	100000
-4.00889 	348.432 	100000
-4.00789 	348.432 	100000
-4.00689 	348.432 	100000
-4.00589 	348.432 	100000
-4.00489 	348.432 	100000
-4.00389 	348.432 	100000
-4.00289 	348.432 	100000
-4.00189 	348.432 	100000
-4.0009 	348.432 	100000
-3.9999 	348.432 	100000
-3.9989 	348.432 	100000
-3.9979 	348.432 	100000
-3.9969 	348.432 	100000
-3.9959 	348.432 	100000
-3.9949 	348.432 	100000
-3.9939 	348.432 	100000
-3.9929 	348.432 	100000
-3.9919 	348.432 	100000
-3.9909 	348.432 	100000
-3.98991 	348.432 	100000
-3.98891 	348.432 	100000
-3.98791 	348.432 	100000
-3.98691 	348.432 	100000
-3.98591 	348.432 	100000
-3.98491 	348.432 	100000
-3.98391 	348.432 	100000
-3.98291 	348.432 	100000
-3.98191 	348.432 	100000
-3.98091 	348.432 	100000
-3.97991 	348.432 	100000
-3.97892 	348.432 	100000
-3.97792 	348.432 	100000
-3.97692 	348.432 	100000
-3.97592 	348.432 	100000
-3.97492 	348.432 	100000
-3.97392 	348.432 	100000
-3.97292 	348.432 	100000
-3.97192 	348.432 	100000
-3.97092 	348.432 	100000
-3.96992 	348.432 	100000
-3.96892 	348.432 	100000
-3.96793 	348.432 	100000
-3.96693 	348.432 	100000
-3.96593 	348.432 	100000
-3.96493 	348.432 	100000
-3.96393 	348.432 	100000
-3.96293 	348.432 	100000
-3.96193 	348.432 	100000
-3.96093 	348.432 	100000
-3.95993 	348.432 	100000
-3.95893 	348.432 	100000
-3.95793 	348.432 	100000
-3.95694 	348.432 	100000
-3.95594 	348.432 	100000
-3.95494 	348.432 	100000
-3.95394 	348.432 	100000
-3.95294 	348.432 	100000
-3.95194 	348.432 	100000
-3.95094 	348.432 	100000
-3.94994 	348.432 	100000
-3.94894 	348.432 	100000
-3.94794 	348.432 	100000
-3.94694 	348.432 	100000
-3.94595 	348.432 	100000
-3.94495 	348.432 	100000
-3.94395 	348.432 	100000
-3.94295 	348.432 	100000
-3.94195 	348.432 	100000
-3.94095 	348.432 	100000
-3.93995 	348.432 	100000
-3.93895 	348.432 	100000
-3.93795 	348.432 	100000
-3.93695 	348.432 	100000
-3.93595 	348.432 	100000
-3.93495 	348.432 	100000
-3.93396 	348.432 	100000
-3.93296 	348.432 	100000
-3.93196 	348.432 	100000
-3.93096 	348.432 	100000
-3.92996 	348.432 	100000
-3.92896 	348.432 	100000
-3.92796 	348.432 	100000
-3.92696 	348.432 	100000
-3.92596 	348.432 	100000
-3.92496 	348.432 	100000
-3.92396 	348.432 	100000
-3.92297 	348.432 	100000
-3.92197 	348.432 	100000
-3.92097 	348.432 	100000
-3.91997 	348.432 	100000
-3.91897 	348.432 	100000
-3.91797 	348.432 	100000
-3.91697 	348.432 	100000
-3.91597 	348.432 	100000
-3.91497 	348.432 	100000
-3.91397 	348.432 	100000
-3.91297 	348.432 	100000
-3.91198 	348.432 	100000
-3.91098 	348.432 	100000
-3.90998 	348.432 	100000
-3.90898 	348.432 	100000
-3.90798 	348.432 	100000
-3.90698 	348.432 	100000
-3.90598 	348.432 	100000
-3.90498 	348.432 	100000
-3.90398 	348.432 	100000
-3.90298 	348.432 	100000
-3.90198 	348.432 	100000
-3.90099 	348.432 	100000
-3.89999 	348.432 	100000
-3.89899 	348.432 	100000
-3.89799 	348.432 	100000
-3.89699 	348.432 	100000
-3.89599 	348.432 	100000
-3.89499 	348.432 	100000
-3.89399 	348.432 	100000
-3.89299 	348.432 	100000
-3.89199 	348.432 	100000
-3.89099 	348.432 	100000
-3.89 	348.432 	100000
-3.889 	348.432 	100000
-3.888 	348.432 	100000
-3.887 	348.432 	100000
-3.886 	348.432 	100000
-3.885 	348.432 	100000
-3.884 	348.432 	100000
-3.883 	348.432 	100000
-3.882 	348.432 	100000
-3.881 	348.432 	100000
-3.88 	348.432 	100000
-3.87901 	348.432 	100000
-3.87801 	348.432 	100000
-3.87701 	348.432 	100000
-3.87601 	348.432 	100000
-3.87501 	348.432 	100000
-3.87401 	348.432 	100000
-3.87301 	348.432 	100000
-3.87201 	348.432 	100000
-3.87101 	348.432 	100000
-3.87001 	348.432 	100000
-3.86901 	348.432 	100000
-3.86802 	348.432 	100000
-3.86702 	348.432 	100000
-3.86602 	348.432 	100000
-3.86502 	348.432 	100000
-3.86402 	348.432 	100000
-3.86302 	348.432 	100000
-3.86202 	348.432 	100000
-3.86102 	348.432 	100000
-3.86002 	348.432 	100000
-3.85902 	348.432 	100000
-3.85802 	348.432 	100000
-3.85703 	348.432 	100000
-3.85603 	348.432 	100000
-3.85503 	348.432 	100000
-3.85403 	348.432 	100000
-3.85303 	348.432 	100000
-3.85203 	348.432 	100000
-3.85103 	348.432 	100000
-3.85003 	348.432 	100000
-3.84903 	348.432 	100000
-3.84803 	348.432 	100000
-3.84703 	348.432 	100000
-3.84604 	348.432 	100000
-3.84504 	348.432 	100000
-3.84404 	348.432 	100000
-3.84304 	348.432 	100000
-3.84204 	348.432 	100000
-3.84104 	348.432 	100000
-3.84004 	348.432 	100000
-3.83904 	348.432 	100000
-3.83804 	348.432 	100000