/*--------------------------------*- C++ -*----------------------------------*\
| =========                 |                                                 |
| \\      /  F ield         | OpenFOAM: The Open Source CFD Toolbox           |
|  \\    /   O peration     | Version:  v2012                                 |
|   \\  /    A nd           | Website:  www.openfoam.com                      |
|    \\/     M anipulation  |                                                 |
\*---------------------------------------------------------------------------*/
FoamFile
{
    version     2.0;
    format      ascii;
    class       volScalarField;
    location    "0.007";
    object      mag(U);
}
// * * * * * * * * * * * * * * * * * * * * * * * * * * * * * * * * * * * * * //

dimensions      [0 1 -1 0 0 0 0];


internalField   nonuniform List<scalar> 
100
(
3.3819e-08
1.50619e-07
5.374e-07
1.88983e-06
6.45951e-06
2.14469e-05
6.90946e-05
0.000215705
0.000651711
0.00190256
0.00535799
0.0145275
0.037843
0.0944636
0.225308
0.511718
1.10267
2.24455
4.2844
7.54592
12.1463
18.0513
25.1685
33.3168
42.2752
51.8294
61.8147
72.094
82.5857
93.2037
103.922
114.654
125.472
136.19
147.033
157.83
168.538
179.402
190.186
200.785
211.424
221.939
232.225
242.496
252.435
261.8
272.543
283.182
290.536
296.624
302.866
308.337
312.5
315.24
317.322
319.419
321.219
322.063
320.705
315.708
309.46
305.633
304.552
305.069
306.3
307.697
309.119
310.826
312.308
314.261
317.498
320.207
321.406
322.248
323.494
324.992
327.05
331.636
339.563
349.229
359.126
367.99
375.478
381.721
385.261
387.794
390.764
390.524
385.61
378.594
372.12
368.125
365.967
361.9
353.233
334.27
276.144
143.164
34.6531
5.65686
)
;

boundaryField
{
    sides
    {
        type            calculated;
        value           nonuniform List<scalar> 2(5.65686 3.3819e-08);
    }
    empty
    {
        type            empty;
    }
}


// ************************************************************************* //
