/*--------------------------------*- C++ -*----------------------------------*\
| =========                 |                                                 |
| \\      /  F ield         | OpenFOAM: The Open Source CFD Toolbox           |
|  \\    /   O peration     | Version:  v2012                                 |
|   \\  /    A nd           | Website:  www.openfoam.com                      |
|    \\/     M anipulation  |                                                 |
\*---------------------------------------------------------------------------*/
FoamFile
{
    version     2.0;
    format      ascii;
    class       volScalarField;
    location    "0.007";
    object      p;
}
// * * * * * * * * * * * * * * * * * * * * * * * * * * * * * * * * * * * * * //

dimensions      [1 -1 -2 0 0 0 0];


internalField   nonuniform List<scalar> 
100
(
100000
100000
100000
100000
100000
100000
100000
99999.9
99999.8
99999.3
99998.1
99994.8
99986.3
99965.7
99918
99813.2
99596.4
99176.1
98420.9
97196.9
95495.4
93361.4
90848.5
88049.5
85065.3
81983.3
78871.5
75776.1
72730.2
69754
66864.7
64063.6
61370.8
58752
56263.9
53831.1
51504
49277.2
47121.4
45056.6
43101
41201.4
39466.9
37776.3
36210.5
34581.4
33430.4
32122.7
30722.8
29930
29289.9
28792.7
28463.4
28311.1
28312.4
28325.4
28370
28483.7
28737.4
29259.5
30133.6
30850.4
31307.6
31562
31765.8
31916.3
32085.6
32280.7
32405.3
32576.9
32750.2
32763.9
32706.3
32737.8
32712.9
32596.2
32353.7
32166.9
31674.2
30879.7
29991.1
29142
28295.4
27713.7
27047.6
26955.7
26937.1
26868.7
26879.5
26855.1
26840.8
26794.2
26648.1
26150.7
25520.2
24414.8
22001.2
14001.8
10915.3
10143.1
)
;

boundaryField
{
    sides
    {
        type            zeroGradient;
    }
    empty
    {
        type            empty;
    }
}


// ************************************************************************* //
