/*--------------------------------*- C++ -*----------------------------------*\
| =========                 |                                                 |
| \\      /  F ield         | OpenFOAM: The Open Source CFD Toolbox           |
|  \\    /   O peration     | Version:  v2012                                 |
|   \\  /    A nd           | Website:  www.openfoam.com                      |
|    \\/     M anipulation  |                                                 |
\*---------------------------------------------------------------------------*/
FoamFile
{
    version     2.0;
    format      ascii;
    class       surfaceScalarField;
    location    "0.007";
    object      phi;
}
// * * * * * * * * * * * * * * * * * * * * * * * * * * * * * * * * * * * * * //

dimensions      [1 0 -1 0 0 0 0];
oriented        oriented;


internalField   nonuniform List<scalar> 
99
(
3.32776e-07
1.22665e-06
4.34773e-06
1.50139e-05
5.03858e-05
0.000164157
0.000518587
0.00158649
0.00469329
0.0134046
0.0368969
0.0976803
0.24814
0.60324
1.39901
3.08389
6.43573
12.6601
23.2922
39.2144
59.6744
84.1219
111.563
140.782
170.657
200.31
229.13
256.713
282.818
307.296
330.11
351.134
370.782
388.243
404.756
420.159
432.331
444.586
456.981
465.717
471.428
477.516
487.743
497.33
500.876
499.317
496.242
469.656
436.559
408.685
387.72
373.805
365.88
361.572
359.052
357.63
357.295
357.879
358.831
360.739
363.571
365.205
366.03
367.487
370.377
373.771
378.829
384.378
388.594
392.38
380.831
329.959
281.289
254.348
243.392
242.967
256.282
289.731
319.347
343.417
356.005
365.14
376.357
382.511
382.097
377.309
346.616
272.775
221.745
194.675
181.044
173.871
168.255
159.702
152.927
137.554
78.6411
20.617
4.1365
)
;

boundaryField
{
    sides
    {
        type            calculated;
        value           nonuniform List<scalar> 2(1.16975 -1.26749e-07);
    }
    empty
    {
        type            empty;
        value           nonuniform List<scalar> 0();
    }
}


// ************************************************************************* //
