/*--------------------------------*- C++ -*----------------------------------*\
| =========                 |                                                 |
| \\      /  F ield         | OpenFOAM: The Open Source CFD Toolbox           |
|  \\    /   O peration     | Version:  v2012                                 |
|   \\  /    A nd           | Website:  www.openfoam.com                      |
|    \\/     M anipulation  |                                                 |
\*---------------------------------------------------------------------------*/
FoamFile
{
    version     2.0;
    format      ascii;
    class       volScalarField;
    location    "0.007";
    object      T;
}
// * * * * * * * * * * * * * * * * * * * * * * * * * * * * * * * * * * * * * //

dimensions      [0 0 0 1 0 0 0];


internalField   nonuniform List<scalar> 
100
(
348.432
348.432
348.432
348.432
348.432
348.432
348.432
348.432
348.432
348.431
348.43
348.427
348.418
348.398
348.35
348.246
348.029
347.608
346.85
345.612
343.874
341.662
339.013
336
332.712
329.229
325.617
321.922
318.182
314.414
310.663
306.849
303.316
299.028
296.508
291.369
288.331
285.804
280.883
276.461
274.428
272.546
268.029
261.584
256.888
254.642
255.22
260.436
274.766
294.489
312.303
326.379
335.942
341.752
345.957
348.932
351.345
352.808
354.166
357.36
358.706
360.053
363.292
365.602
366.908
367.113
366.649
365.33
364.158
364.309
371.082
405.523
487.054
562.858
606.883
617.836
606.068
555.498
496.925
450.399
428.682
417.054
400.902
386.788
379.543
380.325
396.324
466.7
590.872
692.341
757.699
793.756
810.213
813.411
811.305
800.259
776.118
670.256
616.004
602.477
)
;

boundaryField
{
    sides
    {
        type            zeroGradient;
    }
    empty
    {
        type            empty;
    }
}


// ************************************************************************* //
