/*--------------------------------*- C++ -*----------------------------------*\
| =========                 |                                                 |
| \\      /  F ield         | OpenFOAM: The Open Source CFD Toolbox           |
|  \\    /   O peration     | Version:  v2012                                 |
|   \\  /    A nd           | Website:  www.openfoam.com                      |
|    \\/     M anipulation  |                                                 |
\*---------------------------------------------------------------------------*/
FoamFile
{
    version     2.0;
    format      ascii;
    class       volVectorField;
    location    "0.007";
    object      U;
}
// * * * * * * * * * * * * * * * * * * * * * * * * * * * * * * * * * * * * * //

dimensions      [0 1 -1 0 0 0 0];


internalField   nonuniform List<vector> 
100
(
(3.3819e-08 0 0)
(1.50619e-07 0 0)
(5.374e-07 0 0)
(1.88983e-06 0 0)
(6.45951e-06 0 0)
(2.14469e-05 0 0)
(6.90946e-05 0 0)
(0.000215705 0 0)
(0.000651711 0 0)
(0.00190256 0 0)
(0.00535799 0 0)
(0.0145275 0 0)
(0.037843 0 0)
(0.0944636 0 0)
(0.225308 0 0)
(0.511718 0 0)
(1.10267 0 0)
(2.24455 0 0)
(4.2844 0 0)
(7.54592 0 0)
(12.1463 0 0)
(18.0513 0 0)
(25.1685 0 0)
(33.3168 0 0)
(42.2752 0 0)
(51.8294 0 0)
(61.8147 0 0)
(72.094 0 0)
(82.5857 0 0)
(93.2037 0 0)
(103.922 0 0)
(114.654 0 0)
(125.472 0 0)
(136.19 0 0)
(147.033 0 0)
(157.83 0 0)
(168.538 0 0)
(179.402 0 0)
(190.186 0 0)
(200.785 0 0)
(211.424 0 0)
(221.939 0 0)
(232.225 0 0)
(242.496 0 0)
(252.435 0 0)
(261.8 0 0)
(272.543 0 0)
(283.182 0 0)
(290.536 0 0)
(296.624 0 0)
(302.866 0 0)
(308.337 0 0)
(312.5 0 0)
(315.24 0 0)
(317.322 0 0)
(319.419 0 0)
(321.219 0 0)
(322.063 0 0)
(320.705 0 0)
(315.708 0 0)
(309.46 0 0)
(305.633 0 0)
(304.552 0 0)
(305.069 0 0)
(306.3 0 0)
(307.697 0 0)
(309.119 0 0)
(310.826 0 0)
(312.308 0 0)
(314.261 0 0)
(317.498 0 0)
(320.207 0 0)
(321.406 0 0)
(322.248 0 0)
(323.494 0 0)
(324.992 0 0)
(327.05 0 0)
(331.636 0 0)
(339.563 0 0)
(349.229 0 0)
(359.126 0 0)
(367.99 0 0)
(375.478 0 0)
(381.721 0 0)
(385.261 0 0)
(387.794 0 0)
(390.764 0 0)
(390.524 0 0)
(385.61 0 0)
(378.594 0 0)
(372.12 0 0)
(368.125 0 0)
(365.967 0 0)
(361.9 0 0)
(353.233 0 0)
(334.27 0 0)
(276.144 0 0)
(143.164 0 0)
(34.6531 0 0)
(5.65686 0 0)
)
;

boundaryField
{
    sides
    {
        type            zeroGradient;
    }
    empty
    {
        type            empty;
    }
}


// ************************************************************************* //
