/*--------------------------------*- C++ -*----------------------------------*\
| =========                 |                                                 |
| \\      /  F ield         | OpenFOAM: The Open Source CFD Toolbox           |
|  \\    /   O peration     | Version:  v2012                                 |
|   \\  /    A nd           | Website:  www.openfoam.com                      |
|    \\/     M anipulation  |                                                 |
\*---------------------------------------------------------------------------*/
FoamFile
{
    version     2.0;
    format      ascii;
    class       volScalarField;
    location    "1";
    object      T;
}
// * * * * * * * * * * * * * * * * * * * * * * * * * * * * * * * * * * * * * //

dimensions      [0 0 0 1 0 0 0];


internalField   nonuniform List<scalar> 
1000
(
7.22771e-94
-2.42285e-93
6.30141e-93
-1.68301e-92
4.47602e-92
-1.18966e-91
3.1586e-91
-8.37773e-91
2.2198e-90
-5.87564e-90
1.55364e-89
-4.10387e-89
1.08289e-88
-2.85447e-88
7.51638e-88
-1.97713e-87
5.1952e-87
-1.36367e-86
3.57562e-86
-9.36546e-86
2.45042e-85
-6.40444e-85
1.67206e-84
-4.36062e-84
1.13598e-83
-2.95607e-83
7.68386e-83
-1.99509e-82
5.17443e-82
-1.34053e-81
3.46899e-81
-8.96684e-81
2.31517e-80
-5.97081e-80
1.53811e-79
-3.95769e-79
1.01717e-78
-2.61123e-78
6.69562e-78
-1.71486e-77
4.38688e-77
-1.12091e-76
2.86069e-76
-7.29215e-76
1.85661e-75
-4.72132e-75
1.19917e-74
-3.04211e-74
7.70795e-74
-1.95062e-73
4.93028e-73
-1.24461e-72
3.13805e-72
-7.90211e-72
1.98739e-71
-4.99204e-71
1.25234e-70
-3.13775e-70
7.85161e-70
-1.9622e-69
4.89744e-69
-1.22077e-68
3.03901e-68
-7.55554e-68
1.87598e-67
-4.65179e-67
1.15196e-66
-2.84888e-66
7.0361e-66
-1.73543e-65
4.27459e-65
-1.05146e-64
2.58286e-64
-6.33599e-64
1.55213e-63
-3.79703e-63
9.27588e-63
-2.26287e-62
5.51259e-62
-1.34103e-61
3.25766e-61
-7.90233e-61
1.91418e-60
-4.63005e-60
1.11831e-59
-2.69715e-59
6.49554e-59
-1.56203e-58
3.75077e-58
-8.9931e-58
2.15303e-57
-5.14686e-57
1.22851e-56
-2.92793e-56
6.96756e-56
-1.65553e-55
3.92759e-55
-9.30347e-55
2.20034e-54
-5.19584e-54
1.22502e-53
-2.88365e-53
6.77727e-53
-1.59029e-52
3.72563e-52
-8.71415e-52
2.03492e-51
-4.7442e-51
1.10425e-50
-2.56601e-50
5.95292e-50
-1.37873e-49
3.18789e-49
-7.35864e-49
1.69573e-48
-3.90103e-48
8.95898e-48
-2.05396e-47
4.70084e-47
-1.074e-46
2.44948e-46
-5.57675e-46
1.26742e-45
-2.87534e-45
6.51152e-45
-1.47196e-44
3.32141e-44
-7.48104e-44
1.68193e-43
-3.77446e-43
8.45471e-43
-1.89032e-42
4.21853e-42
-9.39657e-42
2.08909e-41
-4.63572e-41
1.02671e-40
-2.26955e-40
5.00716e-40
-1.10255e-39
2.423e-39
-5.31438e-39
1.1633e-38
-2.54133e-38
5.54065e-38
-1.20555e-37
2.61772e-37
-5.67253e-37
1.22669e-36
-2.64726e-36
5.70103e-36
-1.22518e-35
2.62743e-35
-5.62264e-35
1.20067e-34
-2.55842e-34
5.4398e-34
-1.15411e-33
2.44323e-33
-5.16085e-33
1.08772e-32
-2.2874e-32
4.79945e-32
-1.00475e-31
2.09864e-31
-4.37342e-31
9.09292e-31
-1.88615e-30
3.90334e-30
-8.05885e-30
1.6599e-29
-3.41078e-29
6.9917e-29
-1.42976e-28
2.91665e-28
-5.9353e-28
1.20484e-27
-2.4397e-27
4.92783e-27
-9.92845e-27
1.99528e-26
-3.99961e-26
7.99672e-26
-1.59471e-25
3.17187e-25
-6.29227e-25
1.24494e-24
-2.45657e-24
4.83441e-24
-9.48814e-24
1.85709e-23
-3.62486e-23
7.05578e-23
-1.36958e-22
2.65098e-22
-5.11678e-22
9.84793e-22
-1.88992e-21
3.61644e-21
-6.90001e-21
1.31262e-20
-2.48964e-20
4.70797e-20
-8.87605e-20
1.66834e-19
-3.12619e-19
5.83988e-19
-1.08752e-18
2.01886e-18
-3.7359e-18
6.89122e-18
-1.26706e-17
2.32211e-17
-4.24174e-17
7.72267e-17
-1.40133e-16
2.53426e-16
-4.56756e-16
8.20405e-16
-1.46848e-15
2.61935e-15
-4.65573e-15
8.24587e-15
-1.45521e-14
2.55883e-14
-4.48299e-14
7.82509e-14
-1.36079e-13
2.35753e-13
-4.06886e-13
6.9955e-13
-1.19806e-12
2.0438e-12
-3.47279e-12
5.87733e-12
-9.90665e-12
1.66303e-11
-2.78022e-11
4.62856e-11
-7.67328e-11
1.26667e-10
-2.08197e-10
3.40714e-10
-5.55124e-10
9.00437e-10
-1.45397e-09
2.33709e-09
-3.73928e-09
5.95482e-09
-9.43829e-09
1.4888e-08
-2.33707e-08
3.65065e-08
-5.67424e-08
8.77514e-08
-1.35014e-07
2.0666e-07
-3.14667e-07
4.76576e-07
-7.17907e-07
1.07553e-06
-1.60238e-06
2.37387e-06
-3.49672e-06
5.12081e-06
-7.45505e-06
1.07884e-05
-1.55171e-05
2.21805e-05
-3.1506e-05
4.44659e-05
-6.23481e-05
8.68422e-05
-0.000120142
0.000165068
-0.000225201
0.000305042
-0.000410172
0.00054742
-0.000725027
0.000952776
-0.00124209
0.00160604
-0.00205927
0.00261775
-0.00329842
0.00411849
-0.00509462
0.00624173
-0.0075716
0.00909115
-0.0108005
0.0126911
-0.0147435
0.0169259
-0.0191922
0.0214822
-0.0237212
0.0258217
-0.0276867
0.0292136
-0.0303003
0.0308526
-0.0307921
0.0300646
-0.0286476
0.0265571
-0.0238512
0.0206309
-0.0170367
0.0132412
-0.00943728
0.00582341
-0.0025864
-0.000115875
0.00217003
-0.00351887
0.00416746
-0.0041821
0.00368211
-0.00282491
0.00178626
-0.000738176
-0.000172146
0.000839381
-0.00121031
0.00128572
-0.00111369
0.000775788
-0.000368667
-1.52805e-05
0.000304563
-0.000459462
0.000475349
-0.000378339
0.00021484
-3.78837e-05
-0.00010633
0.000188477
-0.000200645
0.00015479
-7.62068e-05
-5.66662e-06
6.62485e-05
-9.208e-05
8.28713e-05
-4.92522e-05
7.48304e-06
2.67944e-05
-4.36074e-05
4.09898e-05
-2.41897e-05
2.47189e-06
1.4996e-05
-2.25328e-05
1.94492e-05
-9.37586e-06
-1.99225e-06
9.59079e-06
-1.0951e-05
6.72879e-06
2.03011e-07
-6.47984e-06
9.8971e-06
-1.02596e-05
9.17459e-06
-9.0677e-06
1.20314e-05
-1.91111e-05
3.03307e-05
-4.53477e-05
6.43282e-05
-8.85883e-05
0.00012075
-0.000164467
0.000224021
-0.000304101
0.000409966
-0.000547898
0.000725738
-0.000953228
0.00124206
-0.00160566
0.00205886
-0.0026176
0.00329856
-0.00411876
0.0050948
-0.00624173
0.00757145
-0.00909099
0.0108005
-0.0126912
0.0147436
-0.0169259
0.0191922
-0.0214821
0.0237211
-0.0258217
0.0276868
-0.0292136
0.0303003
-0.0308525
0.0307921
-0.0300646
0.0286476
-0.0265571
0.0238512
-0.0206309
0.0170367
-0.0132412
0.00943729
-0.00582342
0.0025864
0.000115882
-0.00217003
0.00351887
-0.00416746
0.0041821
-0.00368211
0.00282492
-0.00178626
0.000738174
0.000172148
-0.000839381
0.00121031
-0.00128572
0.00111369
-0.000775789
0.000368668
1.52814e-05
-0.000304564
0.000459462
-0.000475348
0.000378338
-0.000214841
3.78842e-05
0.00010633
-0.000188477
0.000200645
-0.000154789
7.62067e-05
5.66611e-06
-6.62476e-05
9.20791e-05
-8.28701e-05
4.925e-05
-7.47913e-06
-2.68005e-05
4.36168e-05
-4.10045e-05
2.42131e-05
-2.50854e-06
-1.49392e-05
2.24452e-05
-1.93142e-05
9.16911e-06
2.307e-06
-1.00673e-05
1.16688e-05
-7.80435e-06
1.39945e-06
4.10598e-06
-6.40045e-06
5.13876e-06
-1.71947e-06
-1.72068e-06
3.48567e-06
-3.06944e-06
1.17534e-06
8.81824e-07
-1.98013e-06
1.74608e-06
-6.07425e-07
-6.00267e-07
1.18014e-06
-9.40954e-07
2.06213e-07
4.77697e-07
-7.10665e-07
4.51386e-07
2.88059e-08
-3.77627e-07
4.01224e-07
-1.57033e-07
-1.34124e-07
2.66904e-07
-1.86282e-07
-4.76724e-09
1.47987e-07
-1.52287e-07
4.54228e-08
6.99968e-08
-1.06749e-07
5.4537e-08
2.7495e-08
-6.9435e-08
4.70899e-08
7.67403e-09
-4.36695e-08
3.58394e-08
-1.71381e-10
-2.77501e-08
2.58506e-08
-1.85992e-09
-1.8358e-08
1.76301e-08
-1.34658e-09
-1.21035e-08
1.24886e-08
3.15326e-10
-7.05715e-09
1.33971e-08
1.37478e-08
2.15416e-08
6.63756e-08
1.37123e-07
2.90185e-07
6.31981e-07
1.31908e-06
2.70954e-06
5.50588e-06
1.09915e-05
2.15544e-05
4.15215e-05
7.85077e-05
0.000145645
0.000264984
0.00047247
0.000825013
0.00140999
0.00235715
0.00385247
0.00615237
0.00959598
0.0146119
0.0217161
0.031497
0.0445868
0.0616179
0.083169
0.109704
0.141514
0.178668
0.220979
0.267994
0.31901
0.373109
0.429216
0.486168
0.542791
0.597968
0.650702
0.700165
0.745725
0.786959
0.823649
0.855761
0.883421
0.90688
0.92648
0.942618
0.955718
0.966207
0.974494
0.980955
0.98593
0.989714
0.992557
0.994668
0.996218
0.997344
0.998152
0.998726
0.99913
0.999411
0.999605
0.999737
0.999827
0.999887
0.999927
0.999953
0.99997
0.999981
0.999988
0.999993
0.999995
0.999997
0.999998
0.999999
0.999999
1
1
1
1
1
1
1
1
1
1
1
1
1
1
1
1
1
1
1
1
1
1
1
1
1
1
1
0.999999
0.999999
0.999997
0.999994
0.999989
0.999978
0.999958
0.999921
0.999854
0.999735
0.999528
0.999175
0.99859
0.997643
0.996148
0.993848
0.990404
0.985388
0.978284
0.968503
0.955413
0.938382
0.916831
0.890296
0.858486
0.821332
0.779021
0.732006
0.68099
0.626891
0.570784
0.513832
0.457209
0.402032
0.349298
0.299835
0.254275
0.213041
0.176351
0.144239
0.116579
0.0931195
0.0735198
0.057382
0.0442817
0.0337928
0.0255064
0.0190448
0.0140697
0.0102862
0.0074432
0.0053319
0.00378181
0.00265637
0.0018481
0.00127376
0.000869847
0.000588667
0.000394854
0.000262551
0.000173089
0.000113154
7.33642e-05
4.71814e-05
3.01019e-05
1.90553e-05
1.197e-05
7.46257e-06
4.618e-06
2.83691e-06
1.73029e-06
1.04792e-06
6.30257e-07
3.76482e-07
2.23385e-07
1.31673e-07
7.71107e-08
4.48701e-08
2.59458e-08
1.49103e-08
8.51648e-09
4.83535e-09
2.72916e-09
1.53145e-09
8.54459e-10
4.74054e-10
2.61547e-10
1.43514e-10
7.83241e-11
4.25194e-11
2.29617e-11
1.23361e-11
6.59384e-12
3.50688e-12
1.8559e-12
9.77389e-13
5.12261e-13
2.6721e-13
1.38733e-13
7.16974e-14
3.68847e-14
1.88902e-14
9.63162e-15
4.88945e-15
2.47141e-15
1.24387e-15
6.23413e-16
3.1115e-16
1.54661e-16
7.65654e-17
3.77524e-17
1.85412e-17
9.07058e-18
4.42034e-18
2.14596e-18
1.03789e-18
5.00109e-19
2.40094e-19
1.14847e-19
5.4739e-20
2.59976e-20
1.23039e-20
5.80296e-21
2.7275e-21
1.27764e-21
5.9648e-22
2.77551e-22
1.28726e-22
5.95088e-23
2.74223e-23
1.25964e-23
5.76806e-24
2.63308e-24
1.19829e-24
5.4368e-25
2.45934e-25
1.10918e-25
4.98775e-26
2.23637e-26
9.99838e-27
4.45735e-27
1.98151e-27
8.78421e-28
3.88334e-28
1.71206e-28
7.52755e-29
3.30082e-29
1.44356e-29
6.29656e-30
2.7393e-30
1.18865e-30
5.14464e-31
2.22105e-31
9.56466e-32
4.10867e-32
1.76061e-32
7.52604e-33
3.20937e-33
1.36531e-33
5.79448e-34
2.45344e-34
1.03639e-34
4.36789e-35
1.83664e-35
7.70536e-36
3.22541e-36
1.34713e-36
5.61405e-37
2.33449e-37
9.68647e-38
4.01056e-38
1.65699e-38
6.83148e-39
2.81061e-39
1.15394e-39
4.72796e-40
1.93319e-40
7.88856e-41
3.21253e-41
1.30567e-41
5.29614e-42
2.14405e-42
8.66299e-43
3.49352e-43
1.40614e-43
5.64897e-44
2.26514e-44
9.06585e-45
3.62175e-45
1.44421e-45
5.74848e-46
2.28396e-46
9.05831e-47
3.58618e-47
1.41726e-47
5.59122e-48
2.20195e-48
8.65687e-49
3.39758e-49
1.33119e-49
5.2069e-50
2.03325e-50
7.92649e-51
3.085e-51
1.19872e-51
4.65024e-52
1.80108e-52
6.96457e-53
2.68885e-53
1.03646e-53
3.98895e-54
1.53282e-54
5.88099e-55
2.25292e-55
8.61745e-56
3.29122e-56
1.25511e-56
4.77926e-57
1.81718e-57
6.89914e-58
2.61553e-58
9.90134e-59
3.74286e-59
1.41284e-59
5.32557e-60
2.00459e-60
7.53493e-61
2.82831e-61
1.06017e-61
3.96852e-62
1.4835e-62
5.5381e-63
2.06466e-63
7.687e-64
2.85817e-64
1.06132e-64
3.93583e-65
1.45767e-65
5.39167e-66
1.99172e-66
7.34815e-67
2.70755e-67
9.96388e-68
3.66215e-68
1.34432e-68
4.92871e-69
1.8048e-69
6.60079e-70
2.41121e-70
8.79731e-71
3.20586e-71
1.16687e-71
4.24213e-72
1.54041e-72
5.58702e-73
2.02404e-73
7.32413e-74
2.64725e-74
9.55735e-75
3.44657e-75
1.2415e-75
4.46705e-76
1.6055e-76
5.76391e-77
2.06703e-77
7.40458e-78
2.64961e-78
9.47093e-79
3.38171e-79
1.20619e-79
4.29767e-80
1.52964e-80
5.43866e-81
1.9317e-81
6.85386e-82
2.42931e-82
8.60167e-83
3.04256e-83
1.07512e-83
3.79518e-84
1.33836e-84
4.71496e-85
1.65941e-85
5.83443e-86
2.04936e-86
7.19137e-87
2.52106e-87
8.82949e-88
3.08937e-88
1.07992e-88
3.77134e-89
1.31581e-89
4.58647e-90
1.5972e-90
5.55693e-91
1.93156e-91
6.70784e-92
2.32734e-92
8.06751e-93
2.794e-93
9.66766e-94
3.34216e-94
1.15437e-94
3.98361e-95
1.37349e-95
4.73144e-96
1.62847e-96
5.60004e-97
1.92409e-97
6.6052e-98
2.26555e-98
7.76413e-99
2.65854e-99
9.09552e-100
3.10919e-100
1.06195e-100
3.6241e-101
1.23577e-101
4.21035e-102
1.43332e-102
4.87543e-103
1.65704e-103
5.62731e-104
1.90951e-104
6.47432e-105
2.19342e-105
7.42518e-106
2.5116e-106
8.48893e-107
2.86693e-107
9.67486e-108
3.2624e-108
1.09925e-108
3.70102e-109
1.24514e-109
4.18586e-110
1.40613e-110
4.71996e-111
1.58317e-111
5.30634e-112
1.77722e-112
5.94793e-113
1.98918e-113
6.64758e-114
2.21993e-114
7.40799e-115
2.4703e-115
8.23165e-116
2.74104e-116
9.12085e-117
3.03283e-117
1.00776e-117
3.34626e-118
1.11035e-118
3.68181e-119
1.22e-119
4.03982e-120
1.3368e-120
4.42053e-121
1.46079e-121
4.82401e-122
1.59198e-122
5.25018e-123
1.7303e-123
5.69878e-124
1.87566e-124
6.16939e-125
2.02789e-125
6.66139e-126
2.18677e-126
7.17397e-127
2.352e-127
7.70612e-128
2.52324e-128
8.25665e-129
2.70007e-129
8.82421e-130
2.88187e-130
9.41105e-131
3.05842e-131
1.02584e-131
2.61689e-132
)
;

boundaryField
{
    sides
    {
        type            inletOutlet;
        inletValue      uniform 0;
        value           nonuniform List<scalar> 2(2.61689e-132 0);
    }
    empty
    {
        type            empty;
    }
}


// ************************************************************************* //
