/*--------------------------------*- C++ -*----------------------------------*\
| =========                 |                                                 |
| \\      /  F ield         | OpenFOAM: The Open Source CFD Toolbox           |
|  \\    /   O peration     | Version:  v2012                                 |
|   \\  /    A nd           | Website:  www.openfoam.com                      |
|    \\/     M anipulation  |                                                 |
\*---------------------------------------------------------------------------*/
FoamFile
{
    version     2.0;
    format      ascii;
    class       volScalarField;
    location    "0.006";
    object      mag(U);
}
// * * * * * * * * * * * * * * * * * * * * * * * * * * * * * * * * * * * * * //

dimensions      [0 1 -1 0 0 0 0];


internalField   nonuniform List<scalar> 
100
(
3.69409e-11
1.74801e-10
7.41398e-10
3.14812e-09
1.30588e-08
5.27726e-08
2.07534e-07
7.93028e-07
2.94265e-06
1.05859e-05
3.68903e-05
0.000124307
0.000404592
0.00126928
0.00383244
0.0111092
0.0308515
0.0818249
0.206623
0.494679
1.11794
2.37294
4.69316
8.48723
13.9141
20.9465
29.4672
39.2197
49.9279
61.2858
73.1298
85.2381
97.5796
109.925
122.445
134.795
147.204
159.701
172.142
184.532
196.931
209.346
221.044
233.118
246.955
258.872
268.242
278.461
288.639
297.977
306.292
313.206
318.647
322.548
325.68
328.811
331.45
332.708
331.078
325.529
319.244
315.932
315.08
315.482
316.715
318.002
319.41
321.679
323.336
323.234
322.447
321.592
320.538
319.943
320.92
323.036
325.621
329.29
334.784
341.409
348.64
358.094
373.794
387.432
390.236
385.476
371.293
347.976
294.834
164.543
41.6805
8.0993
1.56181
0.308002
0.06284
0.0128344
0.00266041
0.000543255
0.0001129
1.97066e-05
)
;

boundaryField
{
    sides
    {
        type            calculated;
        value           nonuniform List<scalar> 2(1.97066e-05 3.69409e-11);
    }
    empty
    {
        type            empty;
    }
}


// ************************************************************************* //
