/*--------------------------------*- C++ -*----------------------------------*\
| =========                 |                                                 |
| \\      /  F ield         | OpenFOAM: The Open Source CFD Toolbox           |
|  \\    /   O peration     | Version:  v2012                                 |
|   \\  /    A nd           | Website:  www.openfoam.com                      |
|    \\/     M anipulation  |                                                 |
\*---------------------------------------------------------------------------*/
FoamFile
{
    version     2.0;
    format      ascii;
    class       volScalarField;
    location    "0.006";
    object      p;
}
// * * * * * * * * * * * * * * * * * * * * * * * * * * * * * * * * * * * * * //

dimensions      [1 -1 -2 0 0 0 0];


internalField   nonuniform List<scalar> 
100
(
100000
100000
100000
100000
100000
100000
100000
100000
100000
100000
100000
100000
99999.9
99999.5
99998.6
99996
99988.9
99970.4
99925
99819.9
99591.6
99130.4
98271.8
96846.7
94847.2
92321.6
89347.1
86049.5
82564.8
78999.7
75440.6
71936.2
68531.9
65233.5
62092.9
59043.2
56165.8
53387.5
50712.6
48192.2
45758.2
43484.2
41246.4
39136.7
37538.9
35319.5
33854.1
32681.9
31613.4
30719.5
29999.1
29420.9
29035.2
28839.3
28841.3
28857.9
28911.4
29050.5
29363.1
30005.4
31075
31932.7
32454
32748.9
33015.5
33137.9
33275.8
33501.5
33539.4
33495.2
33552.4
33548.9
33546.7
33454
33511.9
33430
33202.3
32891.3
32242.2
31255.9
30260.6
28591.4
27752.9
26031.4
25566.9
25744.1
25894.8
25661.9
23840.4
15073.9
11088.3
10211.6
10040.4
10008
10001.6
10000.3
10000.1
10000
10000
10000
)
;

boundaryField
{
    sides
    {
        type            zeroGradient;
    }
    empty
    {
        type            empty;
    }
}


// ************************************************************************* //
