/*--------------------------------*- C++ -*----------------------------------*\
| =========                 |                                                 |
| \\      /  F ield         | OpenFOAM: The Open Source CFD Toolbox           |
|  \\    /   O peration     | Version:  v2012                                 |
|   \\  /    A nd           | Website:  www.openfoam.com                      |
|    \\/     M anipulation  |                                                 |
\*---------------------------------------------------------------------------*/
FoamFile
{
    version     2.0;
    format      ascii;
    class       surfaceScalarField;
    location    "0.006";
    object      phi;
}
// * * * * * * * * * * * * * * * * * * * * * * * * * * * * * * * * * * * * * //

dimensions      [1 0 -1 0 0 0 0];
oriented        oriented;


internalField   nonuniform List<scalar> 
99
(
3.71095e-10
1.59049e-09
6.77903e-09
2.83515e-08
1.15621e-07
4.59032e-07
1.77186e-06
6.64369e-06
2.41672e-05
8.51964e-05
0.000290647
0.000958267
0.00304822
0.00933938
0.0275044
0.0776869
0.209897
0.540844
1.32426
3.06789
6.69099
13.6709
25.9691
44.6252
68.73
97.5652
129.716
163.549
197.62
230.852
262.563
292.302
319.879
344.962
368.318
388.69
406.913
425.567
439.464
450.203
464.504
480.038
486.109
488.914
477.283
441.624
411.266
389.833
376.422
369.842
367.375
366.631
366.5
366.771
368.225
370.284
372.594
375.114
377.561
379.283
380.405
383.325
387.138
392.348
398.016
401.515
403.849
388.084
329.594
276.251
247.516
237.588
237.964
259.206
295.556
322.43
343.496
359.687
364.878
370.298
377.809
378.32
360.216
285.094
218.625
191.601
179.919
165.448
107.318
24.7904
5.07699
0.935963
0.179427
0.0357905
0.00732441
0.001504
0.000310536
6.36658e-05
1.29583e-05
)
;

boundaryField
{
    sides
    {
        type            calculated;
        value           nonuniform List<scalar> 2(4.08528e-06 -1.37778e-10);
    }
    empty
    {
        type            empty;
        value           nonuniform List<scalar> 0();
    }
}


// ************************************************************************* //
