/*--------------------------------*- C++ -*----------------------------------*\
| =========                 |                                                 |
| \\      /  F ield         | OpenFOAM: The Open Source CFD Toolbox           |
|  \\    /   O peration     | Version:  v2012                                 |
|   \\  /    A nd           | Website:  www.openfoam.com                      |
|    \\/     M anipulation  |                                                 |
\*---------------------------------------------------------------------------*/
FoamFile
{
    version     2.0;
    format      ascii;
    class       volScalarField;
    location    "0.006";
    object      T;
}
// * * * * * * * * * * * * * * * * * * * * * * * * * * * * * * * * * * * * * //

dimensions      [0 0 0 1 0 0 0];


internalField   nonuniform List<scalar> 
100
(
348.432
348.432
348.432
348.432
348.432
348.432
348.432
348.432
348.432
348.432
348.432
348.432
348.432
348.432
348.431
348.428
348.421
348.402
348.357
348.252
348.024
347.563
346.7
345.257
343.207
340.575
337.41
333.812
329.903
325.779
321.531
317.201
312.878
308.42
304.503
299.154
296.618
291.026
286.145
284.105
280.361
272.359
266.314
264.492
267.059
278.26
300.78
321.008
335.491
344.505
348.814
350.39
351.431
353.125
354.194
354.251
354.3
354.491
355.587
358.849
364.457
368.537
369.476
369.141
367.723
366.163
366.429
374.263
412.795
503.318
586.976
630.848
638.045
614.689
544.992
486.487
454.045
428.847
415.884
410.188
395.602
379.899
384.983
427.666
554.454
689.746
761.495
789.766
795.174
692.736
619.129
603.647
600.694
600.138
600.028
600.006
600.001
600
600
600
)
;

boundaryField
{
    sides
    {
        type            zeroGradient;
    }
    empty
    {
        type            empty;
    }
}


// ************************************************************************* //
