/*--------------------------------*- C++ -*----------------------------------*\
| =========                 |                                                 |
| \\      /  F ield         | OpenFOAM: The Open Source CFD Toolbox           |
|  \\    /   O peration     | Version:  v2012                                 |
|   \\  /    A nd           | Website:  www.openfoam.com                      |
|    \\/     M anipulation  |                                                 |
\*---------------------------------------------------------------------------*/
FoamFile
{
    version     2.0;
    format      ascii;
    class       volVectorField;
    location    "0.006";
    object      U;
}
// * * * * * * * * * * * * * * * * * * * * * * * * * * * * * * * * * * * * * //

dimensions      [0 1 -1 0 0 0 0];


internalField   nonuniform List<vector> 
100
(
(3.69409e-11 0 0)
(1.74801e-10 0 0)
(7.41398e-10 0 0)
(3.14812e-09 0 0)
(1.30588e-08 0 0)
(5.27726e-08 0 0)
(2.07534e-07 0 0)
(7.93028e-07 0 0)
(2.94265e-06 0 0)
(1.05859e-05 0 0)
(3.68903e-05 0 0)
(0.000124307 0 0)
(0.000404592 0 0)
(0.00126928 0 0)
(0.00383244 0 0)
(0.0111092 0 0)
(0.0308515 0 0)
(0.0818249 0 0)
(0.206623 0 0)
(0.494679 0 0)
(1.11794 0 0)
(2.37294 0 0)
(4.69316 0 0)
(8.48723 0 0)
(13.9141 0 0)
(20.9465 0 0)
(29.4672 0 0)
(39.2197 0 0)
(49.9279 0 0)
(61.2858 0 0)
(73.1298 0 0)
(85.2381 0 0)
(97.5796 0 0)
(109.925 0 0)
(122.445 0 0)
(134.795 0 0)
(147.204 0 0)
(159.701 0 0)
(172.142 0 0)
(184.532 0 0)
(196.931 0 0)
(209.346 0 0)
(221.044 0 0)
(233.118 0 0)
(246.955 0 0)
(258.872 0 0)
(268.242 0 0)
(278.461 0 0)
(288.639 0 0)
(297.977 0 0)
(306.292 0 0)
(313.206 0 0)
(318.647 0 0)
(322.548 0 0)
(325.68 0 0)
(328.811 0 0)
(331.45 0 0)
(332.708 0 0)
(331.078 0 0)
(325.529 0 0)
(319.244 0 0)
(315.932 0 0)
(315.08 0 0)
(315.482 0 0)
(316.715 0 0)
(318.002 0 0)
(319.41 0 0)
(321.679 0 0)
(323.336 0 0)
(323.234 0 0)
(322.447 0 0)
(321.592 0 0)
(320.538 0 0)
(319.943 0 0)
(320.92 0 0)
(323.036 0 0)
(325.621 0 0)
(329.29 0 0)
(334.784 0 0)
(341.409 0 0)
(348.64 0 0)
(358.094 0 0)
(373.794 0 0)
(387.432 0 0)
(390.236 0 0)
(385.476 0 0)
(371.293 0 0)
(347.976 0 0)
(294.834 0 0)
(164.543 0 0)
(41.6805 0 0)
(8.0993 0 0)
(1.56181 0 0)
(0.308002 0 0)
(0.06284 0 0)
(0.0128344 0 0)
(0.00266041 0 0)
(0.000543255 0 0)
(0.0001129 0 0)
(1.97066e-05 0 0)
)
;

boundaryField
{
    sides
    {
        type            zeroGradient;
    }
    empty
    {
        type            empty;
    }
}


// ************************************************************************* //
