/*--------------------------------*- C++ -*----------------------------------*\
| =========                 |                                                 |
| \\      /  F ield         | OpenFOAM: The Open Source CFD Toolbox           |
|  \\    /   O peration     | Version:  v2012                                 |
|   \\  /    A nd           | Website:  www.openfoam.com                      |
|    \\/     M anipulation  |                                                 |
\*---------------------------------------------------------------------------*/
FoamFile
{
    version     2.0;
    format      ascii;
    class       volScalarField;
    location    "0.08";
    object      T;
}
// * * * * * * * * * * * * * * * * * * * * * * * * * * * * * * * * * * * * * //

dimensions      [0 0 0 1 0 0 0];


internalField   nonuniform List<scalar> 
1000
(
5.13926e-256
-2.49518e-255
1.01325e-254
-4.15514e-254
1.70281e-253
-6.97798e-253
2.85931e-252
-1.17155e-251
4.79984e-251
-1.96635e-250
8.05496e-250
-3.29938e-249
1.35135e-248
-5.53443e-248
2.26644e-247
-9.28071e-247
3.80001e-246
-1.55581e-245
6.36932e-245
-2.60733e-244
1.06725e-243
-4.36817e-243
1.78772e-242
-7.31588e-242
2.99363e-241
-1.22488e-240
5.01138e-240
-2.05014e-239
8.3864e-239
-3.4303e-238
1.40298e-237
-5.73769e-237
2.34631e-236
-9.59398e-236
3.92261e-235
-1.60367e-234
6.5557e-234
-2.6797e-233
1.09526e-232
-4.47618e-232
1.82921e-231
-7.47448e-231
3.05394e-230
-1.24768e-229
5.09692e-229
-2.08197e-228
8.50357e-228
-3.47289e-227
1.41821e-226
-5.79098e-226
2.36442e-225
-9.65288e-225
3.94049e-224
-1.60843e-223
6.56473e-223
-2.67911e-222
1.09326e-221
-4.46083e-221
1.81998e-220
-7.42469e-220
3.02864e-219
-1.23531e-218
5.03806e-218
-2.05451e-217
8.37743e-217
-3.41564e-216
1.39248e-215
-5.6763e-215
2.31365e-214
-9.42948e-214
3.84268e-213
-1.5658e-212
6.37964e-212
-2.59903e-211
1.05872e-210
-4.31229e-210
1.75627e-209
-7.15199e-209
2.91218e-208
-1.18567e-207
4.82687e-207
-1.96481e-206
7.99704e-206
-3.25455e-205
1.32436e-204
-5.3886e-204
2.19229e-203
-8.91809e-203
3.62743e-202
-1.47529e-201
5.9994e-201
-2.43944e-200
9.91799e-200
-4.03189e-199
1.63887e-198
-6.66085e-198
2.70686e-197
-1.0999e-196
4.46877e-196
-1.8154e-195
7.37407e-195
-2.99496e-194
1.21625e-193
-4.93858e-193
2.00507e-192
-8.13965e-192
3.30392e-191
-1.34091e-190
5.44146e-190
-2.2079e-189
8.95754e-189
-3.63366e-188
1.47382e-187
-5.9771e-187
2.42372e-186
-9.82691e-186
3.98379e-185
-1.61481e-184
6.54467e-184
-2.65215e-183
1.07461e-182
-4.35359e-182
1.76354e-181
-7.14276e-181
2.8926e-180
-1.17125e-179
4.74192e-179
-1.91955e-178
7.76932e-178
-3.14418e-177
1.27224e-176
-5.14722e-176
2.08216e-175
-8.42157e-175
3.40573e-174
-1.3771e-173
5.56745e-173
-2.25053e-172
9.09599e-172
-3.67579e-171
1.48521e-170
-6.00009e-170
2.42362e-169
-9.78823e-169
3.95256e-168
-1.59583e-167
6.44208e-167
-2.60016e-166
1.04931e-165
-4.23391e-165
1.70808e-164
-6.88983e-164
2.77867e-163
-1.12046e-162
4.51737e-162
-1.82097e-161
7.3392e-161
-2.95749e-160
1.19158e-159
-4.80013e-159
1.93334e-158
-7.78555e-158
3.1347e-157
-1.26191e-156
5.07906e-156
-2.04392e-155
8.22371e-155
-3.30822e-154
1.33059e-153
-5.35075e-153
2.15133e-152
-8.64809e-152
3.47579e-151
-1.39671e-150
5.6115e-150
-2.25408e-149
9.05271e-149
-3.635e-148
1.45931e-147
-5.85742e-147
2.35061e-146
-9.43128e-146
3.78333e-145
-1.51737e-144
6.08448e-144
-2.43931e-143
9.77736e-143
-3.91821e-142
1.56987e-141
-6.28856e-141
2.51853e-140
-1.00844e-139
4.03704e-139
-1.61578e-138
6.46558e-138
-2.58665e-137
1.0346e-136
-4.13728e-136
1.65409e-135
-6.61157e-135
2.64212e-134
-1.05561e-133
4.2165e-133
-1.68384e-132
6.7228e-132
-2.68347e-131
1.07088e-130
-4.27249e-130
1.70418e-129
-6.7959e-129
2.70939e-128
-1.07991e-127
4.30326e-127
-1.71435e-126
6.82794e-126
-2.71876e-125
1.08228e-124
-4.30721e-124
1.71372e-123
-6.81661e-123
2.71071e-122
-1.07766e-121
4.28312e-121
-1.70186e-120
6.7603e-120
-2.68466e-119
1.06584e-118
-4.23028e-118
1.67852e-117
-6.65819e-117
2.64035e-116
-1.04675e-115
4.14851e-115
-1.64367e-114
6.51038e-114
-2.57791e-113
1.02046e-112
-4.03822e-112
1.59753e-111
-6.31791e-111
2.49781e-110
-9.87203e-110
3.90044e-109
-1.54057e-108
6.0828e-108
-2.40095e-107
9.47366e-107
-3.73685e-106
1.47348e-105
-5.80811e-105
2.28862e-104
-9.01489e-104
3.54971e-103
-1.39724e-102
5.49782e-102
-2.16248e-101
8.50265e-101
-3.34191e-100
1.31302e-99
-5.15683e-99
2.02455e-98
-7.94519e-98
3.11681e-97
-1.22221e-96
4.79079e-96
-1.87712e-95
7.35193e-95
-2.87826e-94
1.12637e-93
-4.406e-93
1.72276e-92
-6.73316e-92
2.63041e-91
-1.02716e-90
4.0092e-90
-1.56417e-89
6.09975e-89
-2.37761e-88
9.26334e-88
-3.60737e-87
1.40413e-86
-5.4628e-86
2.12428e-85
-8.25649e-85
3.20747e-84
-1.24541e-83
4.83326e-83
-1.87475e-82
7.26812e-82
-2.81625e-81
1.09066e-80
-4.22155e-80
1.63312e-79
-6.31426e-79
2.43997e-78
-9.42324e-78
3.6372e-77
-1.40307e-76
5.40928e-76
-2.0842e-75
8.02559e-75
-3.08851e-74
1.18782e-73
-4.56545e-73
1.75363e-72
-6.73153e-72
2.58229e-71
-9.89944e-71
3.79249e-70
-1.45192e-69
5.55475e-69
-2.12364e-68
8.11319e-68
-3.09735e-67
1.18161e-66
-4.50439e-66
1.71583e-65
-6.53103e-65
2.48402e-64
-9.4404e-64
3.58494e-63
-1.36026e-62
5.15716e-62
-1.95361e-61
7.39438e-61
-2.79637e-60
1.0566e-59
-3.98882e-59
1.50449e-58
-5.66947e-58
2.13449e-57
-8.0286e-57
3.01698e-56
-1.13262e-55
4.24786e-55
-1.59156e-54
5.95708e-54
-2.22739e-53
8.31961e-53
-3.10418e-52
1.15696e-51
-4.30736e-51
1.60183e-50
-5.95008e-50
2.20763e-49
-8.18113e-49
3.02815e-48
-1.11946e-47
4.13328e-47
-1.52416e-46
5.61306e-46
-2.06441e-45
7.5824e-45
-2.78112e-44
1.01865e-43
-3.72573e-43
1.36071e-42
-4.96217e-42
1.80684e-41
-6.56898e-41
2.38445e-40
-8.64131e-40
3.12648e-39
-1.12928e-38
4.07192e-38
-1.46567e-37
5.26614e-37
-1.88865e-36
6.76078e-36
-2.41551e-35
8.61324e-35
-3.06515e-34
1.08854e-33
-3.85763e-33
1.36414e-32
-4.81325e-32
1.69447e-31
-5.95139e-31
2.0853e-30
-7.28881e-30
2.54129e-29
-8.83761e-29
3.06525e-28
-1.06027e-27
3.65724e-27
-1.25789e-26
4.3137e-26
-1.47481e-25
5.02649e-25
-1.70763e-24
5.78203e-24
-1.9511e-23
6.56066e-23
-2.19803e-22
7.33646e-22
-2.43923e-21
8.0775e-21
-2.66378e-20
8.74693e-20
-2.85945e-19
9.30484e-19
-3.01344e-18
9.71106e-18
-3.11343e-17
9.92868e-17
-3.14872e-16
9.92815e-16
-3.11165e-15
9.69151e-15
-2.99883e-14
9.21612e-14
-2.81219e-13
8.51724e-13
-2.55951e-12
7.6287e-12
-2.25426e-11
6.60124e-11
-1.91472e-10
5.49818e-10
-1.56215e-09
4.38882e-09
-1.21844e-08
3.34021e-08
-9.03454e-08
2.40887e-07
-6.32513e-07
1.6338e-06
-4.14637e-06
1.03248e-05
-2.51867e-05
6.00854e-05
-0.000139895
0.000317152
-0.000698223
0.00148801
-0.00305826
0.00603429
-0.011367
0.0203002
-0.0340635
0.0530647
-0.0754677
0.0955489
-0.103269
0.087584
-0.0453258
-0.00784234
0.0375404
-0.0177037
-0.026411
0.0241045
0.0328117
-0.0224325
-0.0678152
-0.0303317
0.102578
0.293431
0.492248
0.663265
0.791797
0.878926
0.933289
0.964957
0.982358
0.99145
0.995997
0.998183
0.999198
0.999655
0.999855
0.999941
0.999976
0.999991
0.999996
0.999999
0.999999
1
1
1
1
1
1
1
1
1
1
1
1
1
1
1
1
1
1
1
1
1
1
1
1
1
1
1
1
1
1
1
1
1
1
1
1
1
1
1
1
1
1
1
1
1
1
1
1
1
1
0.999998
1
0.99999
1.00003
0.99994
1.00014
0.999683
1.0007
0.998512
1.00306
0.993966
1.01137
0.9797
1.03406
0.946935
1.07547
0.904451
1.10327
0.912416
1.04533
1.00784
0.96246
1.0177
1.02641
0.975896
0.967188
1.02243
1.06782
1.03033
0.897422
0.706569
0.507752
0.336735
0.208203
0.121074
0.0667106
0.0350434
0.0176422
0.00854962
0.00400334
0.0018171
0.000801729
0.000344682
0.000144701
5.94289e-05
2.39174e-05
9.44621e-06
3.66605e-06
1.39974e-06
5.26336e-07
1.95103e-07
7.13555e-08
2.57689e-08
9.19572e-09
3.24475e-09
1.13279e-09
3.91497e-10
1.34013e-10
4.54577e-11
1.52864e-11
5.0982e-12
1.68697e-12
5.54029e-13
1.80649e-13
5.8499e-14
1.88192e-14
6.016e-15
1.91153e-15
6.03847e-16
1.89689e-16
5.92675e-17
1.84222e-17
5.69764e-18
1.75372e-18
5.37286e-19
1.63872e-19
4.97648e-20
1.50495e-20
4.53277e-21
1.35989e-21
4.0644e-22
1.2103e-22
3.59123e-23
1.06193e-23
3.12962e-24
9.1934e-25
2.69209e-25
7.85909e-26
2.2875e-26
6.63881e-27
1.92131e-27
5.54514e-28
1.59614e-28
4.58246e-29
1.31229e-29
3.74876e-30
1.06832e-30
3.03739e-31
8.61601e-32
2.43861e-32
6.88707e-33
1.9409e-33
5.45848e-34
1.532e-34
4.2913e-35
1.19971e-35
3.34768e-36
9.3241e-37
2.5923e-37
7.1944e-38
1.99321e-38
5.51282e-39
1.52221e-39
4.19633e-40
1.15498e-40
3.17395e-41
8.70892e-42
2.38604e-42
6.52761e-43
1.78322e-43
4.86457e-44
1.3252e-44
3.6052e-45
9.79489e-46
2.65767e-46
7.20188e-47
1.94914e-47
5.26871e-48
1.42245e-48
3.83577e-49
1.03314e-49
2.77949e-50
7.46931e-51
2.00499e-51
5.37613e-52
1.43999e-52
3.85295e-53
1.02985e-53
2.74986e-54
7.33519e-55
1.95471e-55
5.20393e-56
1.38409e-56
3.6778e-57
9.76357e-58
2.5896e-58
6.86226e-59
1.81684e-59
4.80604e-60
1.27024e-60
3.35442e-61
8.85088e-62
2.33345e-62
6.14697e-63
1.61799e-63
4.25551e-64
1.11838e-64
2.93695e-65
7.70685e-66
2.02085e-66
5.29511e-67
1.38644e-67
3.62761e-68
9.48493e-69
2.47826e-69
6.47089e-70
1.68845e-70
4.40274e-71
1.14729e-71
2.98774e-72
7.7756e-73
2.02233e-73
5.25653e-74
1.36546e-74
3.54484e-75
9.19717e-76
2.38481e-76
6.18017e-77
1.60065e-77
4.14328e-78
1.07188e-78
2.77147e-79
7.16199e-80
1.84979e-80
4.77504e-81
1.23197e-81
3.17687e-82
8.18789e-83
2.10922e-83
5.43067e-84
1.39755e-84
3.59474e-85
9.24176e-86
2.37483e-86
6.09962e-87
1.56591e-87
4.01819e-88
1.03061e-88
2.64215e-89
6.77056e-90
1.7342e-90
4.43997e-91
1.13625e-91
2.90654e-92
7.43183e-93
1.89946e-93
4.8527e-94
1.23924e-94
3.16338e-95
8.0718e-96
2.0588e-96
5.24912e-97
1.33779e-97
3.40816e-98
8.67929e-99
2.20944e-99
5.62235e-100
1.43018e-100
3.63665e-101
9.24388e-102
2.34882e-102
5.96606e-103
1.51486e-103
3.84506e-104
9.75623e-105
2.47464e-105
6.27468e-106
1.59047e-106
4.03007e-107
1.02083e-107
2.58496e-108
6.54353e-109
1.65588e-109
4.18897e-110
1.05937e-110
2.67824e-111
6.7689e-112
1.71022e-112
4.31968e-113
1.09074e-113
2.75333e-114
6.94812e-115
1.75286e-115
4.42079e-116
1.11462e-116
2.8095e-117
7.07958e-118
1.78346e-118
4.49155e-119
1.13086e-119
2.84644e-120
7.16269e-121
1.80191e-121
4.53182e-122
1.13946e-122
2.86423e-123
7.19786e-124
1.80837e-124
4.54211e-125
1.14056e-125
2.86331e-126
7.18637e-127
1.80319e-127
4.52343e-128
1.13445e-128
2.84446e-129
7.13032e-130
1.78696e-130
4.47729e-131
1.12154e-131
2.80874e-132
7.03249e-133
1.76038e-133
4.40559e-134
1.10231e-134
2.75743e-135
6.8962e-136
1.72432e-136
4.31055e-137
1.07734e-137
2.69201e-138
6.72524e-139
1.67976e-139
4.19463e-140
1.04725e-140
2.61406e-141
6.52366e-142
1.62771e-142
4.06047e-143
1.01271e-143
2.52528e-144
6.29573e-145
1.56927e-145
3.91077e-146
9.74412e-147
2.42739e-147
6.04578e-148
1.50551e-148
3.74826e-149
9.33031e-150
2.3221e-150
5.77811e-151
1.43751e-151
3.57565e-152
8.89244e-153
2.2111e-153
5.49691e-154
1.36632e-154
3.39552e-155
8.43697e-156
2.09599e-156
5.20618e-157
1.29292e-157
3.21035e-158
7.97001e-159
1.9783e-159
4.90967e-160
1.21826e-160
3.02243e-161
7.49724e-162
1.85941e-162
4.61083e-163
1.14318e-163
2.83386e-164
7.02383e-165
1.74061e-165
4.31281e-166
1.06844e-166
2.64652e-167
6.5544e-168
1.62302e-168
4.01836e-169
9.94739e-170
2.46209e-170
6.09303e-171
1.50764e-171
3.72993e-172
9.22654e-173
2.28199e-173
5.64322e-174
1.39533e-174
3.44957e-175
8.52691e-176
2.10745e-176
5.20789e-177
1.28679e-177
3.179e-178
7.85263e-179
1.93946e-179
4.78946e-180
1.18259e-180
2.9196e-181
7.20701e-182
1.77881e-182
4.38981e-183
1.08319e-183
2.67244e-184
6.59258e-185
1.6261e-185
4.01035e-186
9.88923e-187
2.4383e-187
6.01116e-188
1.48175e-188
3.65205e-189
9.00006e-190
2.21769e-190
5.4639e-191
1.34602e-191
3.3155e-192
8.16572e-193
2.01088e-193
4.95141e-194
1.21904e-194
3.00094e-195
7.38662e-196
1.81796e-196
4.47375e-197
1.1008e-197
2.7083e-198
6.66249e-199
1.6388e-199
4.03058e-200
9.91196e-201
2.43727e-201
5.99239e-202
1.47315e-202
3.62117e-203
8.90027e-204
2.18731e-204
5.37489e-205
1.32064e-205
3.24452e-206
7.97025e-207
1.95771e-207
4.80814e-208
1.18076e-208
2.89936e-209
7.11864e-210
1.74762e-210
4.28996e-211
1.05297e-211
2.58424e-212
6.34173e-213
1.55611e-213
3.81792e-214
9.36638e-215
2.2976e-215
5.63551e-216
1.38214e-216
3.38943e-217
8.31112e-218
2.03775e-218
4.99576e-219
1.22465e-219
3.00177e-220
7.35707e-221
1.80298e-221
4.41812e-222
1.08254e-222
2.65222e-223
6.49733e-224
1.59155e-224
3.89823e-225
9.54718e-226
2.338e-226
5.72497e-227
1.40173e-227
3.43176e-228
8.401e-229
2.0564e-229
5.03321e-230
1.23181e-230
3.01445e-231
7.37621e-232
1.80477e-232
4.41542e-233
1.08016e-233
2.64219e-234
6.46256e-235
1.58055e-235
3.86525e-236
9.45171e-237
2.31104e-237
5.65025e-238
1.38132e-238
3.37663e-239
8.25351e-240
2.01724e-240
4.92996e-241
1.20474e-241
2.94381e-242
7.19269e-243
1.75727e-243
4.29291e-244
1.04865e-244
2.5614e-245
6.25589e-246
1.5278e-246
3.73089e-247
9.11014e-248
2.22436e-248
5.43064e-249
1.32576e-249
3.23628e-250
7.8994e-251
1.92802e-251
4.70538e-252
1.14828e-252
2.80199e-253
6.83707e-254
1.66719e-254
4.10539e-255
8.45548e-256
)
;

boundaryField
{
    sides
    {
        type            inletOutlet;
        inletValue      uniform 0;
        value           nonuniform List<scalar> 2(8.45548e-256 0);
    }
    empty
    {
        type            empty;
    }
}


// ************************************************************************* //
