/*--------------------------------*- C++ -*----------------------------------*\
| =========                 |                                                 |
| \\      /  F ield         | OpenFOAM: The Open Source CFD Toolbox           |
|  \\    /   O peration     | Version:  v2012                                 |
|   \\  /    A nd           | Website:  www.openfoam.com                      |
|    \\/     M anipulation  |                                                 |
\*---------------------------------------------------------------------------*/
FoamFile
{
    version     2.0;
    format      ascii;
    class       volScalarField;
    location    "0.004";
    object      mag(U);
}
// * * * * * * * * * * * * * * * * * * * * * * * * * * * * * * * * * * * * * //

dimensions      [0 1 -1 0 0 0 0];


internalField   nonuniform List<scalar> 
100
(
4.11362e-12
5.0049e-12
4.44913e-12
5.36229e-12
4.12237e-12
4.36014e-12
3.77228e-12
3.07938e-12
2.69719e-12
2.85619e-12
1.24459e-11
7.37621e-11
4.02783e-10
2.08933e-09
1.05547e-08
5.13325e-08
2.42899e-07
1.10307e-06
4.86121e-06
2.04844e-05
8.34783e-05
0.000323878
0.00120967
0.00427936
0.0144819
0.0461245
0.139264
0.392281
1.03284
2.5009
5.53333
10.8868
19.0434
29.9114
43.7105
58.9463
76.206
93.9234
112.061
129.184
149.466
167.603
183.083
202.421
221.61
239.209
256.259
273.294
289.503
304.576
318.231
330.233
340.194
347.652
351.62
353.262
354.336
354.204
351.244
343.057
334.743
331.626
328.597
323.19
318.139
313.414
308.539
306.845
309.512
313.48
315.694
314.364
309.29
298.85
274.536
202.085
74.1005
12.8594
1.9371
0.276894
0.0830966
0.00802529
0.0030641
0.000410634
0.000113536
1.71127e-05
4.08076e-06
6.51345e-07
1.4049e-07
2.29897e-08
4.6004e-09
7.57508e-10
1.41965e-10
2.40235e-11
4.32367e-12
2.60613e-13
7.12761e-13
7.4102e-13
8.32078e-13
8.38358e-13
)
;

boundaryField
{
    sides
    {
        type            calculated;
        value           nonuniform List<scalar> 2(8.38358e-13 4.11362e-12);
    }
    empty
    {
        type            empty;
    }
}


// ************************************************************************* //
