/*--------------------------------*- C++ -*----------------------------------*\
| =========                 |                                                 |
| \\      /  F ield         | OpenFOAM: The Open Source CFD Toolbox           |
|  \\    /   O peration     | Version:  v2012                                 |
|   \\  /    A nd           | Website:  www.openfoam.com                      |
|    \\/     M anipulation  |                                                 |
\*---------------------------------------------------------------------------*/
FoamFile
{
    version     2.0;
    format      ascii;
    class       volScalarField;
    location    "0.004";
    object      p;
}
// * * * * * * * * * * * * * * * * * * * * * * * * * * * * * * * * * * * * * //

dimensions      [1 -1 -2 0 0 0 0];


internalField   nonuniform List<scalar> 
100
(
100000
100000
100000
100000
100000
100000
100000
100000
100000
100000
100000
100000
100000
100000
100000
100000
100000
100000
100000
100000
100000
99999.9
99999.6
99998.5
99994.9
99983.5
99950.1
99858.2
99625.6
99086.5
97967.7
95952.1
92989.3
89104.2
84576
79540.6
74456.9
69405.9
64529.5
59929.3
56371.2
51384.5
48398.4
45726
43303
41045.9
39130.2
37366.1
35753
34290.3
33035.8
31953.7
31062.9
30454.6
30095.1
30108.4
30149.2
30270.8
30573.7
31234.2
32432
33564.4
33608.1
33592.1
33520.7
33396.5
33313.1
33350.5
33312.7
33223
33052.5
32577.6
31940.9
30987.9
28767.7
22394.7
12738.7
10498.7
10073.3
10010.6
10001
10000.4
10000.1
10000
10000
10000
10000
10000
10000
10000
10000
10000
10000
10000
10000
10000
10000
10000
10000
10000
)
;

boundaryField
{
    sides
    {
        type            zeroGradient;
    }
    empty
    {
        type            empty;
    }
}


// ************************************************************************* //
