/*--------------------------------*- C++ -*----------------------------------*\
| =========                 |                                                 |
| \\      /  F ield         | OpenFOAM: The Open Source CFD Toolbox           |
|  \\    /   O peration     | Version:  v2012                                 |
|   \\  /    A nd           | Website:  www.openfoam.com                      |
|    \\/     M anipulation  |                                                 |
\*---------------------------------------------------------------------------*/
FoamFile
{
    version     2.0;
    format      ascii;
    class       surfaceScalarField;
    location    "0.004";
    object      phi;
}
// * * * * * * * * * * * * * * * * * * * * * * * * * * * * * * * * * * * * * //

dimensions      [1 0 -1 0 0 0 0];
oriented        oriented;


internalField   nonuniform List<scalar> 
99
(
1.85878e-11
1.81473e-11
1.97957e-11
1.97105e-11
1.61293e-11
1.58522e-11
1.46727e-11
1.04521e-11
1.03455e-11
2.54801e-11
1.44162e-10
8.01826e-10
4.21819e-09
2.14951e-08
1.05817e-07
5.054e-07
2.32633e-06
1.03589e-05
4.43153e-05
0.000182734
0.000721196
0.00273085
0.00985173
0.033894
0.110447
0.340471
0.986048
2.67051
6.70724
15.4647
32.4039
59.632
95.9346
139.749
187.473
235.142
281.338
322.503
358.724
395.499
409.189
374.906
355.277
352.706
357.954
364.276
376.227
386.442
392.748
398.088
405.473
410.822
411.862
409.584
406.315
405.285
405.849
406.422
407.322
408.557
409.98
382.117
314.245
255.742
224.568
214.59
218.295
259.602
300.922
329.004
342.033
341.124
334.49
320.091
275.211
88.1743
20.2174
3.1603
0.451615
0.0512778
0.00819855
0.00127789
0.000320525
5.37959e-05
1.2182e-05
2.10849e-06
4.43512e-07
7.73456e-08
1.5346e-08
2.66033e-09
5.02565e-10
8.5854e-11
1.55249e-11
2.68452e-12
4.40536e-13
-8.70415e-14
5.32907e-15
1.66089e-13
2.12275e-13
)
;

boundaryField
{
    sides
    {
        type            calculated;
        value           nonuniform List<scalar> 2(1.94268e-13 -1.64204e-11);
    }
    empty
    {
        type            empty;
        value           nonuniform List<scalar> 0();
    }
}


// ************************************************************************* //
