/*--------------------------------*- C++ -*----------------------------------*\
| =========                 |                                                 |
| \\      /  F ield         | OpenFOAM: The Open Source CFD Toolbox           |
|  \\    /   O peration     | Version:  v2012                                 |
|   \\  /    A nd           | Website:  www.openfoam.com                      |
|    \\/     M anipulation  |                                                 |
\*---------------------------------------------------------------------------*/
FoamFile
{
    version     2.0;
    format      ascii;
    class       volScalarField;
    location    "0.004";
    object      T;
}
// * * * * * * * * * * * * * * * * * * * * * * * * * * * * * * * * * * * * * //

dimensions      [0 0 0 1 0 0 0];


internalField   nonuniform List<scalar> 
100
(
348.432
348.432
348.432
348.432
348.432
348.432
348.432
348.432
348.432
348.432
348.432
348.432
348.432
348.432
348.432
348.432
348.432
348.432
348.432
348.432
348.432
348.432
348.432
348.43
348.427
348.416
348.382
348.29
348.058
347.519
346.394
344.348
341.286
337.168
332.203
326.451
320.47
313.45
309.769
294.697
295.43
316.136
357.069
378.543
385.767
386.756
384.237
377.313
374.104
372.189
367.744
361.125
358.253
358.71
361.019
362.081
361.452
359.335
359.857
361.63
365.007
379.983
429.565
533.884
631.958
677.687
675.9
612.31
515.735
461.745
433.801
418.496
408.375
400.479
390.473
366.823
301.703
282.813
279.332
278.827
599.957
600.007
600.001
600
600
600
600
600
600
600
600
600
600
600
600
600
600
600
600
600
)
;

boundaryField
{
    sides
    {
        type            zeroGradient;
    }
    empty
    {
        type            empty;
    }
}


// ************************************************************************* //
