/*--------------------------------*- C++ -*----------------------------------*\
| =========                 |                                                 |
| \\      /  F ield         | OpenFOAM: The Open Source CFD Toolbox           |
|  \\    /   O peration     | Version:  v2012                                 |
|   \\  /    A nd           | Website:  www.openfoam.com                      |
|    \\/     M anipulation  |                                                 |
\*---------------------------------------------------------------------------*/
FoamFile
{
    version     2.0;
    format      ascii;
    class       volVectorField;
    location    "0.004";
    object      U;
}
// * * * * * * * * * * * * * * * * * * * * * * * * * * * * * * * * * * * * * //

dimensions      [0 1 -1 0 0 0 0];


internalField   nonuniform List<vector> 
100
(
(4.11362e-12 0 0)
(5.0049e-12 0 0)
(4.44913e-12 0 0)
(5.36229e-12 0 0)
(4.12237e-12 0 0)
(4.36014e-12 0 0)
(3.77228e-12 0 0)
(3.07938e-12 0 0)
(2.69719e-12 0 0)
(2.85619e-12 0 0)
(1.24459e-11 0 0)
(7.37621e-11 0 0)
(4.02783e-10 0 0)
(2.08933e-09 0 0)
(1.05547e-08 0 0)
(5.13325e-08 0 0)
(2.42899e-07 0 0)
(1.10307e-06 0 0)
(4.86121e-06 0 0)
(2.04844e-05 0 0)
(8.34783e-05 0 0)
(0.000323878 0 0)
(0.00120967 0 0)
(0.00427936 0 0)
(0.0144819 0 0)
(0.0461245 0 0)
(0.139264 0 0)
(0.392281 0 0)
(1.03284 0 0)
(2.5009 0 0)
(5.53333 0 0)
(10.8868 0 0)
(19.0434 0 0)
(29.9114 0 0)
(43.7105 0 0)
(58.9463 0 0)
(76.206 0 0)
(93.9234 0 0)
(112.061 0 0)
(129.184 0 0)
(149.466 0 0)
(167.603 0 0)
(183.083 0 0)
(202.421 0 0)
(221.61 0 0)
(239.209 0 0)
(256.259 0 0)
(273.294 0 0)
(289.503 0 0)
(304.576 0 0)
(318.231 0 0)
(330.233 0 0)
(340.194 0 0)
(347.652 0 0)
(351.62 0 0)
(353.262 0 0)
(354.336 0 0)
(354.204 0 0)
(351.244 0 0)
(343.057 0 0)
(334.743 0 0)
(331.626 0 0)
(328.597 0 0)
(323.19 0 0)
(318.139 0 0)
(313.414 0 0)
(308.539 0 0)
(306.845 0 0)
(309.512 0 0)
(313.48 0 0)
(315.694 0 0)
(314.364 0 0)
(309.29 0 0)
(298.85 0 0)
(274.536 0 0)
(202.085 0 0)
(74.1005 0 0)
(12.8594 0 0)
(1.9371 0 0)
(0.276894 0 0)
(0.0830966 0 0)
(0.00802529 0 0)
(0.0030641 0 0)
(0.000410634 0 0)
(0.000113536 0 0)
(1.71127e-05 0 0)
(4.08076e-06 0 0)
(6.51345e-07 0 0)
(1.4049e-07 0 0)
(2.29897e-08 0 0)
(4.6004e-09 0 0)
(7.57508e-10 0 0)
(1.41965e-10 0 0)
(2.40235e-11 0 0)
(4.32367e-12 0 0)
(2.60613e-13 0 0)
(-7.12761e-13 0 0)
(7.4102e-13 0 0)
(8.32078e-13 0 0)
(8.38358e-13 0 0)
)
;

boundaryField
{
    sides
    {
        type            zeroGradient;
    }
    empty
    {
        type            empty;
    }
}


// ************************************************************************* //
