/*--------------------------------*- C++ -*----------------------------------*\
| =========                 |                                                 |
| \\      /  F ield         | OpenFOAM: The Open Source CFD Toolbox           |
|  \\    /   O peration     | Version:  v2012                                 |
|   \\  /    A nd           | Website:  www.openfoam.com                      |
|    \\/     M anipulation  |                                                 |
\*---------------------------------------------------------------------------*/
FoamFile
{
    version     2.0;
    format      ascii;
    class       volScalarField;
    location    "3";
    object      T;
}
// * * * * * * * * * * * * * * * * * * * * * * * * * * * * * * * * * * * * * //

dimensions      [0 0 0 1 0 0 0];


internalField   nonuniform List<scalar> 
1000
(
0
0
0
0
0
0
0
0
0
0
0
0
0
0
0
0
0
0
0
0
0
0
0
0
0
0
0
0
0
0
0
0
0
0
0
0
0
0
0
0
0
0
0
0
0
0
0
0
0
0
0
0
0
0
0
0
0
0
0
0
0
0
0
0
0
0
0
0
0
0
0
0
0
0
0
0
0
0
0
0
0
0
0
0
0
0
0
0
0
0
0
0
0
0
0
0
0
0
0
0
0
0
0
0
0
0
0
0
0
0
0
0
0
0
0
0
0
0
0
0
0
0
0
0
0
0
0
0
0
0
0
0
0
0
0
0
0
0
0
0
0
0
0
0
0
0
0
0
0
0
0
0
0
0
0
0
0
0
0
0
0
0
0
0
0
0
0
0
0
0
0
0
0
0
0
0
0
0
0
0
0
0
0
0
0
0
0
0
0
0
0
0
0
0
0
0
0
0
0
0
0
0
0
0
0
0
0
0
0
0
0
0
0
0
0
0
0
0
0
0
0
0
0
0
0
0
0
0
0
0
0
0
0
0
0
0
0
0
0
0
0
0
0
0
0
0
0
0
0
0
0
0
0
0
0
0
0
0
0
0
0
0
0
0
0
0
0
0
0
0
0
0
0
0
0
0
0
0
0
0
0
0
0
0
0
0
0
0
0
0
0
0
0
0
0
0
0
0
0
0
0
0
0
0
0
0
0
0
0
0
0
0
0
0
0
0
0
0
0
0
0
0
0
0
0
0
0
0
0
0
0
0
0
0
0
0
0
0
0
0
0
0
0
0
0
0
0
0
0
0
0
0
0
0
0
0
0
0
0
0
0
0
0
0
0
0
0
0
0
0
0
0
0
0
0
0
0
0
0
0
0
0
0
0
0
0
0
0
0
0
0
0
0
0
0
0
0
0
0
0
0
0
0
0
0
-4.30657e-133
4.85587e-120
-1.27983e-113
1.54538e-110
2.26562e-108
1.53445e-106
6.43008e-105
1.78114e-103
2.87961e-102
-6.76817e-102
-2.27721e-99
-9.278e-98
-2.58539e-96
-5.8086e-95
-1.11685e-93
-1.89523e-92
-2.893e-91
-4.02512e-90
-5.15466e-89
-6.12237e-88
-6.78586e-87
-7.05444e-86
-6.90799e-85
-6.39535e-84
-5.61535e-83
-4.68914e-82
-3.73312e-81
-2.83955e-80
-2.06757e-79
-1.44358e-78
-9.6796e-78
-6.24159e-77
-3.87503e-76
-2.31877e-75
-1.33856e-74
-7.46034e-74
-4.01691e-73
-2.0905e-72
-1.05189e-71
-5.118e-71
-2.40763e-70
-1.09458e-69
-4.8052e-69
-2.03407e-68
-8.28383e-68
-3.2341e-67
-1.20344e-66
-4.22664e-66
-1.3761e-65
-3.99837e-65
-9.3436e-65
-9.90946e-65
6.7109e-64
6.59106e-63
3.9764e-62
2.01591e-61
9.27761e-61
3.99983e-60
1.64159e-59
6.47431e-59
2.46865e-58
9.13849e-58
3.29426e-57
1.15907e-56
3.98767e-56
1.34346e-55
4.43771e-55
1.43871e-54
4.58199e-54
1.43466e-53
4.41935e-53
1.34017e-52
4.00313e-52
1.17844e-51
3.42049e-51
9.79349e-51
2.76715e-50
7.71862e-50
2.12624e-49
5.78619e-49
1.55602e-48
4.13621e-48
1.0871e-47
2.82569e-47
7.26546e-47
1.84832e-46
4.65321e-46
1.15949e-45
2.86014e-45
6.98529e-45
1.68934e-44
4.04613e-44
9.59852e-44
2.25558e-43
5.25106e-43
1.21118e-42
2.7681e-42
6.26906e-42
1.40703e-41
3.1298e-41
6.90039e-41
1.508e-40
3.26685e-40
7.01593e-40
1.49381e-39
3.15345e-39
6.60059e-39
1.36998e-38
2.81969e-38
5.7554e-38
1.16509e-37
2.33927e-37
4.65868e-37
9.20309e-37
1.80351e-36
3.50628e-36
6.76302e-36
1.29428e-35
2.45776e-35
4.63123e-35
8.66021e-35
1.60717e-34
2.96023e-34
5.41185e-34
9.82087e-34
1.76915e-33
3.16388e-33
5.6175e-33
9.90286e-33
1.73341e-32
3.01298e-32
5.20081e-32
8.91571e-32
1.51803e-31
2.56731e-31
4.31296e-31
7.1979e-31
1.19344e-30
1.96606e-30
3.21828e-30
5.23506e-30
8.46304e-30
1.3598e-29
2.17177e-29
3.44811e-29
5.44284e-29
8.54268e-29
1.33333e-28
2.06974e-28
3.19582e-28
4.9091e-28
7.50311e-28
1.14123e-27
1.7277e-27
2.60384e-27
3.90745e-27
5.83976e-27
8.69391e-27
1.28959e-26
1.90636e-26
2.80919e-26
4.12746e-26
6.04808e-26
8.84069e-26
1.28941e-25
1.87682e-25
2.7269e-25
3.95558e-25
5.72942e-25
8.28752e-25
1.19727e-24
1.72758e-24
2.48986e-24
3.58424e-24
5.15332e-24
7.39972e-24
1.06106e-23
1.51916e-23
2.17147e-23
3.09827e-23
4.41199e-23
6.26941e-23
8.88838e-23
1.25705e-22
1.77316e-22
2.49426e-22
3.49845e-22
4.89203e-22
6.81919e-22
9.47456e-22
1.31198e-21
1.8105e-21
2.48968e-21
3.41142e-21
4.65751e-21
6.33552e-21
8.58632e-21
1.15937e-20
1.55964e-20
2.09032e-20
2.79122e-20
3.71347e-20
4.92245e-20
6.50156e-20
8.55679e-20
1.12225e-19
1.46684e-19
1.91086e-19
2.48122e-19
3.21174e-19
4.14477e-19
5.33334e-19
6.84374e-19
8.75875e-19
1.11817e-18
1.42414e-18
1.80985e-18
2.29532e-18
2.90546e-18
3.6713e-18
4.63141e-18
5.83375e-18
7.33784e-18
9.21752e-18
1.15642e-17
1.44909e-17
1.81372e-17
2.26747e-17
2.83146e-17
3.53156e-17
4.39942e-17
5.47363e-17
6.80118e-17
8.43909e-17
1.04565e-16
1.29368e-16
1.59809e-16
1.97104e-16
2.42716e-16
2.98409e-16
3.66309e-16
4.48982e-16
5.49534e-16
6.7174e-16
8.20209e-16
1.00061e-15
1.21998e-15
1.48713e-15
1.81327e-15
2.2129e-15
2.7051e-15
3.31563e-15
4.08025e-15
5.05007e-15
6.30059e-15
7.94643e-15
1.01646e-14
1.32305e-14
1.75717e-14
2.38551e-14
3.31343e-14
4.71158e-14
6.86422e-14
1.02566e-13
1.57297e-13
2.47473e-13
3.98472e-13
6.53842e-13
1.08729e-12
1.82162e-12
3.05801e-12
5.12008e-12
8.51838e-12
1.40414e-11
2.28782e-11
3.67765e-11
5.82334e-11
9.0719e-11
1.38952e-10
2.09345e-10
3.11077e-10
4.59338e-10
6.84971e-10
1.05952e-09
1.75132e-09
3.14006e-09
6.04034e-09
1.212e-08
2.46526e-08
4.98241e-08
9.89292e-08
1.91959e-07
3.63306e-07
6.70605e-07
1.20813e-06
2.12663e-06
3.66204e-06
6.1763e-06
1.02141e-05
1.65802e-05
2.64433e-05
4.14715e-05
6.40085e-05
9.72945e-05
0.000145742
0.000215269
0.000313704
0.000451245
0.000641005
0.000899603
0.00124782
0.0017113
0.00232125
0.00311516
0.00413745
0.00544005
0.00708289
0.00913411
0.0116702
0.0147756
0.0185425
0.0230695
0.0284608
0.0348242
0.0422693
0.0509051
0.0608371
0.0721646
0.0849778
0.0993542
0.115356
0.133027
0.15239
0.173444
0.196165
0.2205
0.246375
0.273684
0.3023
0.332073
0.362831
0.394387
0.426537
0.45907
0.491768
0.524414
0.55679
0.58869
0.619917
0.650288
0.679639
0.707824
0.73472
0.760228
0.784269
0.80679
0.827759
0.847165
0.865018
0.881345
0.896188
0.909604
0.921659
0.932429
0.941995
0.950445
0.957866
0.964347
0.969976
0.974836
0.979011
0.982577
0.985607
0.988166
0.990317
0.992115
0.99361
0.994846
0.995863
0.996695
0.997372
0.99792
0.998362
0.998716
0.998999
0.999223
0.999399
0.999538
0.999646
0.99973
0.999795
0.999845
0.999884
0.999913
0.999934
0.99995
0.999961
0.999968
0.999973
0.999971
0.999964
0.999952
0.999931
0.999899
0.999852
0.999784
0.999686
0.999549
0.99936
0.999102
0.998754
0.998291
0.997681
0.996887
0.995865
0.994562
0.992919
0.990867
0.98833
0.985224
0.981455
0.976927
0.971533
0.965167
0.957719
0.94908
0.939145
0.927813
0.914996
0.900615
0.884609
0.866934
0.847568
0.82651
0.803786
0.779448
0.753572
0.726262
0.697645
0.667873
0.637116
0.605564
0.573417
0.540889
0.508196
0.475556
0.443186
0.411292
0.380073
0.349709
0.320365
0.292187
0.265297
0.239795
0.215759
0.193243
0.172278
0.152875
0.135024
0.118699
0.103857
0.0904415
0.0783863
0.0676155
0.0580474
0.0495958
0.0421727
0.0356894
0.0300585
0.025195
0.0210175
0.0174488
0.0144168
0.0118548
0.00970146
0.00790138
0.00640461
0.00516664
0.00414811
0.00331453
0.00263587
0.00208623
0.00164337
0.00128839
0.00100531
0.000780727
0.000603453
0.000464235
0.000355454
0.000270885
0.000205467
0.000155117
0.000116557
8.71735e-05
6.48928e-05
4.80814e-05
3.54593e-05
2.60289e-05
1.90177e-05
1.38305e-05
1.00114e-05
7.2133e-06
5.17315e-06
3.69283e-06
2.62391e-06
1.85577e-06
1.30642e-06
9.15443e-07
6.38507e-07
4.4329e-07
3.06336e-07
2.10714e-07
1.4427e-07
9.8321e-08
6.66961e-08
4.50338e-08
3.02663e-08
2.0247e-08
1.34815e-08
8.93499e-09
5.89418e-09
3.8701e-09
2.52923e-09
1.6452e-09
1.06514e-09
6.86362e-10
4.40198e-10
2.80989e-10
1.78514e-10
1.12873e-10
7.10294e-11
4.44852e-11
2.77281e-11
1.7201e-11
1.06201e-11
6.52622e-12
3.9921e-12
2.43124e-12
1.47463e-12
8.913e-13
5.37384e-13
3.23749e-13
1.95448e-13
1.18777e-13
7.31593e-14
4.60874e-14
2.99744e-14
2.02401e-14
1.41773e-14
1.02451e-14
7.58704e-15
5.7237e-15
4.37794e-15
3.38284e-15
2.63351e-15
2.06131e-15
1.6197e-15
1.27613e-15
1.00722e-15
7.95829e-16
6.2912e-16
4.97364e-16
3.93088e-16
3.10497e-16
2.45064e-16
1.93232e-16
1.52192e-16
1.1972e-16
9.40516e-17
7.3783e-17
5.77979e-17
4.52077e-17
3.53054e-17
2.75288e-17
2.14308e-17
1.66568e-17
1.29252e-17
1.00132e-17
7.74461e-18
5.98015e-18
4.61012e-18
3.54813e-18
2.72632e-18
2.09143e-18
1.60179e-18
1.2248e-18
9.35022e-19
7.12664e-19
5.42321e-19
4.12042e-19
3.12568e-19
2.36741e-19
1.79033e-19
1.35185e-19
1.01922e-19
)
;

boundaryField
{
    sides
    {
        type            inletOutlet;
        inletValue      uniform 0;
        value           nonuniform List<scalar> 2(1.01922e-19 0);
    }
    empty
    {
        type            empty;
    }
}


// ************************************************************************* //
