/*--------------------------------*- C++ -*----------------------------------*\
| =========                 |                                                 |
| \\      /  F ield         | OpenFOAM: The Open Source CFD Toolbox           |
|  \\    /   O peration     | Version:  v2012                                 |
|   \\  /    A nd           | Website:  www.openfoam.com                      |
|    \\/     M anipulation  |                                                 |
\*---------------------------------------------------------------------------*/
FoamFile
{
    version     2.0;
    format      ascii;
    class       volScalarField;
    location    "3";
    object      T;
}
// * * * * * * * * * * * * * * * * * * * * * * * * * * * * * * * * * * * * * //

dimensions      [0 0 0 1 0 0 0];


internalField   nonuniform List<scalar> 
1000
(
0
0
0
0
0
0
0
0
0
0
0
0
0
0
0
0
0
0
0
0
0
0
0
0
0
0
0
0
0
0
1.97626e-323
-3.06321e-322
5.71634e-321
-1.06624e-319
1.97116e-318
-3.61349e-317
6.56864e-316
-1.18407e-314
2.11659e-313
-3.752e-312
6.59574e-311
-1.14986e-309
1.98799e-308
-3.4086e-307
5.79614e-306
-9.7748e-305
1.63489e-303
-2.712e-302
4.46184e-301
-7.28062e-300
1.1783e-298
-1.89141e-297
3.01135e-296
-4.75538e-295
7.44843e-294
-1.15719e-292
1.78323e-291
-2.72569e-290
4.13257e-289
-6.21497e-288
9.27124e-287
-1.37189e-285
2.01368e-284
-2.9319e-283
4.2345e-282
-6.06669e-281
8.62184e-280
-1.21549e-278
1.69983e-277
-2.35813e-276
3.24517e-275
-4.43016e-274
5.99948e-273
-8.05977e-272
1.07411e-270
-1.42001e-269
1.86231e-268
-2.42289e-267
3.12707e-266
-4.0037e-265
5.0852e-264
-6.40734e-263
8.00884e-262
-9.93082e-261
1.22159e-259
-1.49068e-258
1.80455e-257
-2.16708e-256
2.58168e-255
-3.05106e-254
3.57699e-253
-4.16009e-252
4.79959e-251
-5.49315e-250
6.23665e-249
-7.02414e-248
7.84774e-247
-8.69766e-246
9.56236e-245
-1.04287e-243
1.12822e-242
-1.21074e-241
1.28885e-240
-1.36096e-239
1.42551e-238
-1.48108e-237
1.52638e-236
-1.56035e-235
1.58216e-234
-1.59126e-233
1.58742e-232
-1.57071e-231
1.54152e-230
-1.50053e-229
1.4487e-228
-1.38721e-227
1.31743e-226
-1.2409e-225
1.15918e-224
-1.07392e-223
9.86714e-223
-8.99079e-222
8.12429e-221
-7.28024e-220
6.46949e-219
-5.70098e-218
4.98168e-217
-4.31657e-216
3.70876e-215
-3.15963e-214
2.669e-213
-2.23541e-212
1.85632e-211
-1.52834e-210
1.24752e-209
-1.00954e-208
8.0991e-208
-6.44129e-207
5.07831e-206
-3.96881e-205
3.07456e-204
-2.36087e-203
1.79685e-202
-1.35547e-201
1.0134e-200
-7.50894e-200
5.51391e-199
-4.01242e-198
2.89335e-197
-2.0674e-196
1.46371e-195
-1.02677e-194
7.1361e-194
-4.91351e-193
3.35154e-192
-2.26462e-191
1.51572e-190
-1.00483e-189
6.59764e-189
-4.29022e-188
2.76273e-187
-1.76171e-186
1.11234e-185
-6.95374e-185
4.3037e-184
-2.63679e-183
1.59913e-182
-9.59911e-182
5.70265e-181
-3.3526e-180
1.95032e-179
-1.12255e-178
6.39195e-178
-3.60035e-177
2.0058e-176
-1.10513e-175
6.02094e-175
-3.24328e-174
1.72709e-173
-9.09057e-173
4.72876e-172
-2.4306e-171
1.23428e-170
-6.19114e-170
3.06691e-169
-1.50008e-168
7.24301e-168
-3.45154e-167
1.62288e-166
-7.52706e-166
3.44275e-165
-1.55235e-164
6.8982e-164
-3.01983e-163
1.30184e-162
-5.52422e-162
2.30629e-161
-9.46789e-161
3.81971e-160
-1.51341e-159
5.88435e-159
-2.24327e-158
8.37665e-158
-3.06024e-157
1.09228e-156
-3.80259e-156
1.28853e-155
-4.23887e-155
1.34923e-154
-4.13643e-154
1.21363e-153
-3.37507e-153
8.75669e-153
-2.05801e-152
4.09375e-152
-5.41361e-152
-4.3127e-152
6.79531e-151
-3.30082e-150
1.20708e-149
-3.71129e-149
9.74127e-149
-2.0908e-148
3.00328e-148
1.30364e-148
-3.06676e-147
1.45297e-146
-4.88945e-146
1.29783e-145
-2.59577e-145
2.61692e-145
7.47874e-145
-5.67069e-144
2.15442e-143
-5.93004e-143
1.15868e-142
-9.15217e-143
-4.57205e-142
2.82136e-141
-9.54247e-141
2.23502e-140
-2.9662e-140
-3.39893e-140
3.73902e-139
-1.40738e-138
3.4277e-138
-4.58413e-138
-5.36127e-138
5.67578e-137
-2.03414e-136
4.49157e-136
-4.13186e-136
-1.52503e-135
9.3011e-135
-2.72947e-134
4.47851e-134
1.34103e-134
-3.7228e-133
1.38888e-132
-2.86447e-132
1.46893e-132
1.43601e-131
-6.57106e-131
1.51777e-130
-1.21058e-130
-5.92548e-130
3.04944e-129
-7.24482e-129
5.80247e-129
2.81931e-128
-1.4145e-127
3.17031e-127
-1.74991e-127
-1.51241e-126
6.46837e-126
-1.23724e-125
-4.01984e-127
8.33637e-125
-2.79674e-124
3.90573e-124
5.33696e-124
-4.31478e-123
1.06481e-122
-6.55089e-123
-4.78019e-122
1.94714e-121
-3.08634e-121
-2.79167e-121
2.83681e-120
-6.96276e-120
3.28004e-120
3.40498e-119
-1.22769e-118
1.51334e-118
3.2172e-118
-1.88213e-117
3.44714e-117
1.76604e-117
-2.62779e-116
6.31022e-116
-1.49732e-116
-3.43927e-115
1.03245e-114
-7.13476e-115
-4.32457e-114
1.58042e-113
-1.56821e-113
-5.36475e-113
2.32222e-112
-2.75606e-112
-6.77166e-112
3.32767e-111
-4.28691e-111
-8.96923e-111
4.69244e-110
-6.0948e-110
-1.26983e-109
6.53103e-109
-7.95834e-109
-1.91268e-108
8.94756e-108
-9.37414e-108
-2.99081e-107
1.19668e-106
-9.38815e-107
-4.70659e-106
1.54062e-105
-6.42863e-106
-7.25014e-105
1.86808e-104
1.74189e-105
-1.06866e-103
2.05713e-103
1.77388e-103
-1.47616e-102
1.90626e-102
4.3634e-102
-1.8644e-101
1.14738e-101
7.91589e-101
-2.07054e-100
-4.80951e-101
1.19155e-99
-1.85516e-99
-3.07344e-99
1.51217e-98
-9.6179e-99
-6.32303e-98
1.55629e-97
7.43092e-98
-9.30445e-97
1.10462e-96
3.06545e-96
-1.04754e-95
3.70078e-97
5.30965e-95
-8.14166e-95
-1.49995e-94
6.31643e-94
-1.4865e-94
-2.97449e-93
4.89977e-93
8.16315e-93
-3.55443e-92
6.83539e-93
1.67454e-91
-2.50891e-91
-5.05844e-91
1.86968e-90
1.66718e-91
-9.34135e-90
1.03818e-89
3.31352e-89
-8.86999e-89
-5.88018e-89
4.92817e-88
-2.61079e-88
-2.07438e-87
3.45267e-87
6.25161e-87
-2.2781e-86
-6.57619e-87
1.1381e-85
-7.95874e-86
-4.5703e-85
7.98167e-85
1.39607e-84
-4.95483e-84
-2.10287e-84
2.46553e-83
-1.11021e-83
-1.03842e-82
1.34454e-82
3.67029e-82
-8.93421e-82
-9.89375e-82
4.76023e-81
1.03845e-81
-2.20862e-80
1.04192e-80
9.15852e-80
-1.05604e-79
-3.39542e-79
6.74773e-79
1.09476e-78
-3.59779e-78
-2.77804e-78
1.72256e-77
3.02315e-78
-7.63354e-77
2.45445e-77
3.17802e-76
-2.51617e-76
-1.25227e-75
1.60991e-75
4.6826e-75
-8.6864e-75
-1.65878e-74
4.26964e-74
5.52624e-74
-1.97547e-73
-1.70189e-73
8.75652e-73
4.65224e-73
-3.75989e-72
-1.00089e-72
1.57599e-71
7.43214e-73
-6.48623e-71
8.80348e-72
2.63334e-70
-7.56276e-71
-1.05862e-69
4.32881e-70
4.22707e-69
-2.11664e-69
-1.68059e-68
9.43859e-69
6.6646e-68
-3.93463e-68
-2.63897e-67
1.54696e-67
1.0437e-66
-5.73052e-67
-4.12098e-66
1.97718e-66
1.62251e-65
-6.1637e-66
-6.35794e-65
1.59666e-65
2.47332e-64
-2.34781e-65
-9.52125e-64
-8.41411e-65
3.61301e-63
1.08523e-63
-1.34504e-62
-7.34195e-63
4.88282e-62
4.07677e-62
-1.71457e-61
-2.03552e-61
5.7552e-61
9.44793e-61
-1.81133e-60
-4.13607e-60
5.15051e-60
1.71803e-59
-1.20578e-59
-6.77746e-59
1.51482e-59
2.53093e-58
5.96964e-59
-8.87406e-58
-6.41654e-58
2.87456e-57
3.76133e-57
-8.32102e-57
-1.78704e-56
1.97993e-56
7.4535e-56
-2.71557e-56
-2.79024e-55
-7.25244e-56
9.34699e-55
8.4191e-55
-2.72233e-54
-4.71622e-54
6.29888e-54
2.06292e-53
-7.41644e-54
-7.63166e-53
-2.95642e-53
2.39797e-52
2.80227e-52
-6.04322e-52
-1.41984e-51
9.33054e-52
5.54677e-51
1.3547e-51
-1.75425e-50
-1.92297e-50
4.23648e-50
1.0072e-49
-5.29027e-50
-3.81395e-49
-1.68109e-49
1.10644e-48
1.57751e-48
-2.15707e-48
-7.22016e-48
1.03992e-49
2.36474e-47
2.30025e-47
-5.37386e-47
-1.28802e-46
4.16109e-47
4.57842e-46
3.46209e-46
-1.09975e-45
-2.2856e-45
1.02731e-45
8.39375e-45
6.04458e-45
-1.97849e-44
-4.14768e-44
1.48333e-44
1.47399e-43
1.2566e-43
-3.12385e-43
-7.63861e-43
5.24208e-44
2.43317e-42
2.82191e-42
-4.01721e-42
-1.37101e-41
-4.95156e-42
3.57129e-41
6.1006e-41
-2.98635e-41
-2.24654e-40
-2.05621e-40
4.0675e-40
1.16683e-39
3.52783e-40
-3.02688e-39
-5.22171e-39
1.81637e-39
1.81285e-38
2.01374e-38
-2.52657e-38
-9.58702e-38
-6.35826e-38
1.90472e-37
4.66218e-37
1.28614e-37
-1.1751e-36
-2.13632e-36
2.04689e-37
6.52948e-36
9.40073e-36
-4.42753e-36
-3.40532e-35
-4.04655e-35
3.43154e-35
1.70603e-34
1.73903e-34
-2.08429e-34
-8.33207e-34
-7.63003e-34
1.11656e-33
4.00401e-33
3.48784e-33
-5.47395e-33
-1.90233e-32
-1.67949e-32
2.47583e-32
8.93918e-32
8.48849e-32
-1.01939e-31
-4.1378e-31
-4.42996e-31
3.64032e-31
1.87019e-30
2.3349e-30
-9.54079e-31
-8.13495e-30
-1.21588e-29
4.41224e-32
3.32687e-29
6.13166e-29
2.34111e-29
-1.22656e-28
-2.93631e-28
-2.22668e-28
3.69512e-28
1.30419e-27
1.50785e-27
-5.90972e-28
-5.18046e-27
-8.50949e-27
-2.84373e-27
1.70503e-26
4.12635e-26
3.67886e-26
-3.57276e-26
-1.68862e-25
-2.46323e-25
-5.4762e-26
5.35527e-25
1.2392e-24
1.14568e-24
-8.71288e-25
-4.79578e-24
-7.72951e-24
-3.72547e-24
1.22132e-23
3.54617e-23
4.37191e-23
1.72621e-24
-1.08937e-22
-2.3886e-22
-2.36563e-22
9.87211e-23
8.20633e-22
1.54485e-21
1.30443e-21
-1.05284e-21
-5.65173e-21
-9.91693e-21
-7.86012e-21
7.4366e-21
3.66307e-20
6.42071e-20
5.37668e-20
-3.86784e-20
-2.23674e-19
-4.17927e-19
-4.06014e-19
1.02473e-19
1.25204e-18
2.67286e-18
3.15996e-18
8.06363e-19
-5.93304e-18
-1.60907e-17
-2.36855e-17
-1.69304e-17
1.77701e-17
8.45726e-17
1.60982e-16
1.83271e-16
5.18144e-17
-3.22395e-16
-9.18784e-16
-1.47699e-15
-1.4112e-15
9.73778e-17
3.67964e-15
8.96579e-15
1.35629e-14
1.24042e-14
-1.52044e-15
-3.38844e-14
-8.25627e-14
-1.29018e-13
-1.31449e-13
-2.711e-14
2.46453e-13
7.03211e-13
1.2347e-12
1.53077e-12
1.04368e-12
-9.26754e-13
-4.93558e-12
-1.08199e-11
-1.68863e-11
-1.90848e-11
-1.06659e-11
1.68869e-11
7.06817e-11
1.50186e-10
2.37887e-10
2.88414e-10
2.20308e-10
-8.20464e-11
-7.4544e-10
-1.85117e-09
-3.33408e-09
-4.83572e-09
-5.52909e-09
-3.96417e-09
1.97217e-09
1.48348e-08
3.69381e-08
6.89826e-08
1.07774e-07
1.42928e-07
1.52693e-07
9.94632e-08
-7.37686e-08
-4.4379e-07
-1.10086e-06
-2.13059e-06
-3.57705e-06
-5.37813e-06
-7.26224e-06
-8.59368e-06
-8.15292e-06
-3.83772e-06
7.7282e-06
3.16896e-05
7.5564e-05
0.000149957
0.000269382
0.000453167
0.000726424
0.00112104
0.00167665
0.00244154
0.00347335
0.00483967
0.00661822
0.00889678
0.0117727
0.0153519
0.0197474
0.0250776
0.0314637
0.0390267
0.0478849
0.05815
0.0699235
0.0832938
0.0983321
0.115089
0.133594
0.153851
0.175835
0.199497
0.224759
0.251517
0.279641
0.308978
0.339355
0.370584
0.40246
0.434774
0.467308
0.499848
0.53218
0.564101
0.595417
0.625951
0.655541
0.684045
0.711342
0.737333
0.761938
0.785102
0.806788
0.826982
0.845684
0.862914
0.878705
0.893104
0.906166
0.917957
0.928549
0.938016
0.946438
0.953895
0.960467
0.966232
0.971266
0.975642
0.979429
0.982693
0.985493
0.987884
0.989919
0.991642
0.993096
0.994317
0.995339
0.996191
0.996898
0.997482
0.997964
0.998359
0.998682
0.998945
0.999158
0.99933
0.999469
0.999581
0.99967
0.999741
0.999797
0.999842
0.999877
0.999905
0.999928
0.999945
0.99996
0.999972
0.999982
0.999989
0.999993
0.999993
0.999984
0.999962
0.99992
0.999847
0.999728
0.999545
0.999272
0.998878
0.998323
0.997558
0.996526
0.99516
0.993382
0.991103
0.988227
0.984648
0.980252
0.974922
0.968536
0.960973
0.952115
0.94185
0.930076
0.916706
0.901668
0.884911
0.866406
0.846149
0.824165
0.800503
0.775241
0.748483
0.720359
0.691022
0.660645
0.629416
0.59754
0.565226
0.532692
0.500152
0.46782
0.435899
0.404583
0.374049
0.344459
0.315955
0.288658
0.262667
0.238062
0.214898
0.193212
0.173018
0.154316
0.137086
0.121295
0.106896
0.0938339
0.0820427
0.0714515
0.0619841
0.0535618
0.0461047
0.0395329
0.033768
0.028734
0.0243578
0.0205705
0.0173071
0.0145074
0.0121157
0.0100813
0.00835798
0.00690422
0.00568287
0.00466093
0.00380926
0.00310229
0.00251773
0.00203626
0.00164122
0.00131832
0.00105537
0.000842035
0.000669592
0.000530708
0.000419254
0.00033013
0.000259115
0.000202725
0.000158104
0.000122917
9.52618e-05
7.36003e-05
5.66895e-05
4.35311e-05
3.33257e-05
2.54363e-05
1.93567e-05
1.46867e-05
1.11107e-05
8.38092e-06
6.30357e-06
4.72754e-06
3.53547e-06
2.63652e-06
1.96064e-06
1.45398e-06
1.07527e-06
7.93026e-07
5.83279e-07
4.27852e-07
3.13003e-07
2.28375e-07
1.6619e-07
1.20621e-07
8.732e-08
6.30499e-08
4.54092e-08
3.26213e-08
2.33756e-08
1.67085e-08
1.19133e-08
8.47343e-09
6.01204e-09
4.2553e-09
3.00463e-09
2.11646e-09
1.4873e-09
1.04271e-09
7.29305e-10
5.08915e-10
3.54307e-10
2.46103e-10
1.70556e-10
1.17933e-10
8.13631e-11
5.60084e-11
3.84696e-11
2.6365e-11
1.80298e-11
1.23031e-11
8.37724e-12
5.69194e-12
3.85921e-12
2.61109e-12
1.76293e-12
1.18781e-12
7.98661e-13
5.35904e-13
3.58862e-13
2.39822e-13
1.59948e-13
1.06463e-13
7.07231e-14
4.68886e-14
3.10258e-14
2.04897e-14
1.35055e-14
8.88489e-15
5.83399e-15
3.82347e-15
2.50111e-15
1.63304e-15
1.06428e-15
6.92328e-16
4.49545e-16
2.91369e-16
1.88508e-16
1.2174e-16
7.84805e-17
5.05033e-17
3.24423e-17
2.08038e-17
1.33173e-17
8.51021e-18
5.42896e-18
3.4574e-18
2.19809e-18
1.39511e-18
8.83983e-19
5.59183e-19
3.53138e-19
2.22648e-19
1.40147e-19
8.80727e-20
5.52578e-20
3.46164e-20
2.16298e-20
1.36578e-20
7.33805e-21
)
;

boundaryField
{
    sides
    {
        type            zeroGradient;
    }
    empty
    {
        type            empty;
    }
}


// ************************************************************************* //
