/*--------------------------------*- C++ -*----------------------------------*\
| =========                 |                                                 |
| \\      /  F ield         | OpenFOAM: The Open Source CFD Toolbox           |
|  \\    /   O peration     | Version:  v2012                                 |
|   \\  /    A nd           | Website:  www.openfoam.com                      |
|    \\/     M anipulation  |                                                 |
\*---------------------------------------------------------------------------*/
FoamFile
{
    version     2.0;
    format      ascii;
    class       volScalarField;
    location    "0.04";
    object      T;
}
// * * * * * * * * * * * * * * * * * * * * * * * * * * * * * * * * * * * * * //

dimensions      [0 0 0 1 0 0 0];


internalField   nonuniform List<scalar> 
1000
(
0
0
0
0
0
0
0
0
0
0
0
0
0
0
0
0
0
0
0
0
0
0
0
0
0
0
0
0
0
0
0
0
0
0
0
0
0
0
0
0
0
0
0
0
0
0
0
0
0
0
0
0
0
0
0
0
0
0
0
0
0
0
0
0
0
0
0
0
0
0
0
0
0
0
0
0
0
0
0
0
0
0
0
0
0
0
0
0
0
0
0
0
0
0
0
0
0
0
0
0
0
0
0
0
0
0
0
0
0
0
0
0
0
0
0
0
0
0
0
0
0
0
0
0
0
0
0
0
0
0
0
0
0
0
0
0
0
0
0
0
0
0
0
0
0
0
0
0
0
0
0
0
0
0
0
0
0
0
0
0
0
0
0
0
0
0
0
0
0
0
0
0
0
0
0
0
0
0
0
0
0
0
0
0
0
0
0
0
0
0
0
0
0
0
0
0
0
0
0
0
0
0
0
0
0
0
0
0
0
0
0
0
0
0
0
0
0
0
0
0
0
0
0
0
0
0
0
0
0
0
0
0
0
0
0
0
0
0
0
0
0
0
0
0
0
0
0
0
0
0
0
0
0
0
0
0
0
0
0
0
0
0
0
0
0
0
0
0
0
0
0
0
0
0
0
0
0
0
0
0
0
0
0
0
0
0
0
0
0
0
0
0
0
0
0
0
0
0
0
0
0
0
0
0
0
0
0
0
0
0
0
0
0
0
0
0
0
0
0
0
0
0
0
0
0
0
0
0
0
0
0
0
0
0
0
0
0
0
0
0
0
0
0
0
0
0
0
0
0
0
0
0
0
0
0
0
0
0
0
0
0
0
0
0
0
0
0
0
0
0
0
0
0
0
0
0
0
0
0
0
0
0
0
0
0
0
0
0
0
0
0
0
0
0
0
0
0
0
0
0
0
0
0
0
0
0
0
0
0
0
0
0
0
0
0
0
0
0
0
0
0
0
0
0
0
0
0
0
0
0
0
0
0
0
0
0
0
0
0
0
0
0
0
0
0
0
0
0
0
0
0.0390184
0.143068
0.299141
0.472557
0.631521
0.758692
0.850538
0.911768
0.950038
0.972716
0.985566
0.992576
0.996275
0.998173
0.999121
0.999585
0.999807
0.999912
0.99996
0.999982
0.999992
0.999997
0.999999
0.999999
1
1
1
1
1
1
1
1
1
1
1
1
1
1
1
1
1
1
1
1
1
1
1
1
1
1
1
1
1
1
1
1
1
1
1
1
1
1
1
1
1
1
1
1
1
1
1
1
1
1
1
1
1
1
1
1
1
1
1
1
1
1
1
1
1
1
1
1
1
1
1
1
1
1
1
1
0.960982
0.856932
0.700859
0.527443
0.368479
0.241308
0.149462
0.0882316
0.0499625
0.0272845
0.0144336
0.00742406
0.00372457
0.00182739
0.000878807
0.000415053
0.000192837
8.82653e-05
3.98524e-05
1.77693e-05
7.8319e-06
3.41528e-06
1.47465e-06
6.30893e-07
2.6761e-07
1.12609e-07
4.7032e-08
1.95057e-08
8.03645e-09
3.29054e-09
1.33944e-09
5.42222e-10
2.18351e-10
8.74934e-11
3.4894e-11
1.38542e-11
5.47726e-12
2.15667e-12
8.45909e-13
3.30567e-13
1.28725e-13
4.99575e-14
1.93257e-14
7.45285e-15
2.86563e-15
1.0987e-15
4.20093e-16
1.60202e-16
6.0938e-17
2.31232e-17
8.75356e-18
3.30625e-18
1.24605e-18
4.68614e-19
1.75877e-19
6.58785e-20
2.46291e-20
9.19073e-21
3.42353e-21
1.27305e-21
4.72591e-22
1.75153e-22
6.4813e-23
2.39464e-23
8.83427e-24
3.25441e-24
1.19719e-24
4.39803e-25
1.61353e-25
5.91195e-26
2.16341e-26
7.90702e-27
2.88648e-27
1.05249e-27
3.83331e-28
1.3946e-28
5.06822e-29
1.83994e-29
6.67277e-30
2.41753e-30
8.75011e-31
3.16401e-31
1.14303e-31
4.12552e-32
1.48769e-32
5.36003e-33
1.92953e-33
6.94018e-34
2.49423e-34
8.95681e-35
3.21389e-35
1.15232e-35
4.12849e-36
1.47805e-36
5.28778e-37
1.89039e-37
6.75348e-38
2.41106e-38
8.60203e-39
3.06697e-39
1.0928e-39
3.89131e-40
1.38479e-40
4.92506e-41
1.75057e-41
6.21861e-42
2.20779e-42
7.83392e-43
2.77818e-43
9.84701e-44
3.48833e-44
1.2351e-44
4.37082e-45
1.54598e-45
5.46548e-46
1.93126e-46
6.82091e-47
2.4079e-47
8.49635e-48
2.99659e-48
1.05639e-48
3.72246e-49
1.31113e-49
4.61609e-50
1.62449e-50
5.71454e-51
2.0094e-51
7.06276e-52
2.48148e-52
8.71515e-53
3.05965e-53
1.07375e-53
3.76679e-54
1.32093e-54
4.6305e-55
1.62264e-55
5.68408e-56
1.99043e-56
6.96762e-57
2.43823e-57
8.52939e-58
2.98276e-58
1.04274e-58
3.64415e-59
1.27315e-59
4.44655e-60
1.55251e-60
5.41892e-61
1.89087e-61
6.59599e-62
2.30023e-62
8.01932e-63
2.79498e-63
9.73864e-64
3.39232e-64
1.18134e-64
4.11278e-65
1.43146e-65
4.98092e-66
1.7327e-66
6.02598e-67
2.09517e-67
7.28286e-68
2.5309e-68
8.79311e-69
3.05424e-69
1.06062e-69
3.68225e-70
1.2781e-70
4.43522e-71
1.53874e-71
5.33724e-72
1.85085e-72
6.41694e-73
2.22428e-73
7.70828e-74
2.67074e-74
9.25154e-75
3.20409e-75
1.10944e-75
3.84076e-76
1.32935e-76
4.60018e-77
1.59156e-77
5.50538e-78
1.904e-78
6.58357e-79
2.27601e-79
7.8669e-80
2.71865e-80
9.39337e-81
3.24497e-81
1.12078e-81
3.87038e-82
1.33631e-82
4.61304e-83
1.59217e-83
5.49438e-84
1.89571e-84
6.53964e-85
2.2556e-85
7.77854e-86
2.68203e-86
9.24607e-87
3.187e-87
1.09834e-87
3.78463e-88
1.30389e-88
4.49151e-89
1.54695e-89
5.32716e-90
1.83421e-90
6.31446e-91
2.1735e-91
7.48033e-92
2.57405e-92
8.8563e-93
3.04666e-93
1.04794e-93
3.60401e-94
1.2393e-94
4.26095e-95
1.4648e-95
5.03488e-96
1.73039e-96
5.9462e-97
2.04305e-97
7.01877e-98
2.41094e-98
8.28052e-99
2.84363e-99
9.76412e-100
3.35227e-100
1.15078e-100
3.94993e-101
1.35561e-101
4.65187e-102
1.59613e-102
5.47593e-103
1.87843e-103
6.44292e-104
2.20963e-104
7.57715e-105
2.59802e-105
8.90699e-106
3.0533e-106
1.04655e-106
3.58676e-107
1.22913e-107
4.21158e-108
1.44293e-108
4.9431e-109
1.69319e-109
5.79921e-110
1.98603e-110
6.80074e-111
2.32853e-111
7.97195e-112
2.72899e-112
9.34106e-113
3.19703e-113
1.09409e-113
3.74385e-114
1.28098e-114
4.38249e-115
1.4992e-115
5.12809e-116
1.75393e-116
5.99827e-117
2.05116e-117
7.01347e-118
2.39787e-118
8.19747e-119
2.80217e-119
9.57787e-120
3.27345e-120
1.11867e-120
3.82262e-121
1.30612e-121
4.46237e-122
1.52444e-122
5.20738e-123
1.77865e-123
6.0747e-124
2.07455e-124
7.0841e-125
2.41886e-125
8.25848e-126
2.81939e-126
9.6244e-127
3.28517e-127
1.12126e-127
3.82667e-128
1.30587e-128
4.45603e-129
1.52041e-129
5.18726e-130
1.76963e-130
6.03664e-131
2.05909e-131
7.02296e-132
2.39516e-132
8.16799e-133
2.78525e-133
9.49689e-134
3.23792e-134
1.10388e-134
3.76308e-135
1.28273e-135
4.37215e-136
1.49013e-136
5.07836e-137
1.73058e-137
5.897e-138
2.00928e-138
6.84571e-139
2.33221e-139
7.94489e-140
2.70631e-140
9.21807e-141
3.13959e-141
1.06924e-141
3.64126e-142
1.23994e-142
4.222e-143
1.43751e-143
4.8941e-144
1.66613e-144
5.67174e-145
1.93062e-145
6.57129e-146
2.23654e-146
7.61161e-147
2.5903e-147
8.81446e-148
2.99927e-148
1.02049e-148
3.47198e-149
1.18119e-149
4.01824e-150
1.36687e-150
4.64934e-151
1.58136e-151
5.3783e-152
1.82909e-152
6.22013e-153
2.11514e-153
7.19208e-154
2.44537e-154
8.31403e-155
2.82653e-155
9.60887e-156
3.26638e-156
1.11029e-156
3.77384e-157
1.28265e-157
4.3592e-158
1.48144e-158
5.03428e-159
1.71068e-159
5.81267e-160
1.97497e-160
6.71e-161
2.27962e-161
7.74426e-162
2.63072e-162
8.9361e-163
3.03528e-163
1.03093e-163
3.50135e-164
1.18911e-164
4.03817e-165
1.37128e-165
4.65638e-166
1.58106e-166
5.36818e-167
1.82257e-167
6.1876e-168
2.10058e-168
7.13073e-169
2.42052e-169
8.21605e-170
2.78867e-170
9.4648e-171
3.21222e-171
1.09013e-171
3.69941e-172
1.25536e-172
4.25972e-173
1.44536e-173
4.904e-174
1.66382e-174
5.64472e-175
1.91496e-175
6.49617e-176
2.20362e-176
7.47475e-177
2.53535e-177
8.59923e-178
2.91651e-178
9.89119e-179
3.3544e-179
1.13753e-179
3.85739e-180
1.30799e-180
4.43505e-181
1.50374e-181
5.09837e-182
1.72851e-182
5.85993e-183
1.98654e-183
6.73416e-184
2.28272e-184
7.73756e-185
2.62264e-185
8.88905e-186
3.01269e-186
1.02103e-186
3.46022e-187
1.17261e-187
3.9736e-188
1.34648e-188
4.56244e-189
1.54589e-189
5.23774e-190
1.77457e-190
6.01208e-191
2.03676e-191
6.89986e-192
2.33735e-192
7.91756e-193
2.6819e-193
9.08402e-194
3.07679e-194
1.04208e-194
3.5293e-195
1.19526e-195
4.04779e-196
1.37075e-196
4.64179e-197
1.57179e-197
5.32219e-198
1.80206e-198
6.10147e-199
2.06578e-199
6.99389e-200
2.36776e-200
8.01572e-201
2.71352e-201
9.18559e-202
)
;

boundaryField
{
    sides
    {
        type            inletOutlet;
        inletValue      uniform 0;
        value           nonuniform List<scalar> 2(9.18559e-202 0);
    }
    empty
    {
        type            empty;
    }
}


// ************************************************************************* //
