/*--------------------------------*- C++ -*----------------------------------*\
| =========                 |                                                 |
| \\      /  F ield         | OpenFOAM: The Open Source CFD Toolbox           |
|  \\    /   O peration     | Version:  v2012                                 |
|   \\  /    A nd           | Website:  www.openfoam.com                      |
|    \\/     M anipulation  |                                                 |
\*---------------------------------------------------------------------------*/
FoamFile
{
    version     2.0;
    format      ascii;
    class       volScalarField;
    location    "3";
    object      T;
}
// * * * * * * * * * * * * * * * * * * * * * * * * * * * * * * * * * * * * * //

dimensions      [0 0 0 1 0 0 0];


internalField   nonuniform List<scalar> 
1000
(
1.03492e-282
1.03492e-282
1.03492e-282
1.03492e-282
1.03492e-282
1.03492e-282
1.03492e-282
1.03492e-282
1.03492e-282
1.03492e-282
1.03492e-282
1.03492e-282
1.03492e-282
1.03492e-282
1.03492e-282
1.03492e-282
1.03492e-282
1.03492e-282
1.03492e-282
1.03492e-282
1.03492e-282
1.03492e-282
1.03492e-282
1.03492e-282
1.03492e-282
1.03492e-282
1.03492e-282
1.03492e-282
1.03492e-282
1.03492e-282
1.03492e-282
1.03492e-282
1.03492e-282
1.03492e-282
1.03492e-282
1.03492e-282
1.03492e-282
1.03492e-282
1.03492e-282
1.03492e-282
1.03492e-282
1.03492e-282
1.03492e-282
1.03492e-282
1.03492e-282
1.03492e-282
1.03492e-282
1.03492e-282
1.03492e-282
1.03492e-282
1.03492e-282
1.03492e-282
1.03492e-282
1.03492e-282
1.03492e-282
1.03492e-282
1.03492e-282
1.03492e-282
1.03492e-282
1.03492e-282
1.03492e-282
1.03492e-282
1.03492e-282
1.03492e-282
1.03492e-282
1.03492e-282
1.03492e-282
1.03492e-282
1.03492e-282
1.03492e-282
1.03492e-282
1.03492e-282
1.03492e-282
1.03492e-282
1.03492e-282
1.03492e-282
1.03492e-282
1.03492e-282
1.03492e-282
1.03492e-282
1.03492e-282
1.03492e-282
1.03492e-282
1.03492e-282
1.03492e-282
1.03492e-282
1.03492e-282
1.03492e-282
1.03492e-282
1.03492e-282
1.03492e-282
1.03492e-282
1.03493e-282
1.03498e-282
1.03524e-282
1.0362e-282
1.03917e-282
1.04593e-282
1.05101e-282
9.9426e-283
5.50166e-283
-1.63202e-282
-1.01401e-281
-3.72668e-281
-1.02971e-280
-1.74843e-280
2.28315e-280
3.85332e-279
2.2414e-278
9.65534e-278
3.38033e-277
9.41314e-277
1.69615e-276
-1.38094e-276
-3.17374e-275
-1.9067e-274
-8.32313e-274
-2.93608e-273
-8.22168e-273
-1.49352e-272
1.13921e-272
2.73912e-271
1.6477e-270
7.17131e-270
2.5128e-269
6.93811e-269
1.20508e-268
-1.33457e-268
-2.47819e-267
-1.44568e-266
-6.16886e-266
-2.11458e-265
-5.63058e-265
-8.70757e-265
1.79192e-264
2.32758e-263
1.28184e-262
5.27519e-262
1.7395e-261
4.34054e-261
5.20554e-261
-2.3678e-260
-2.23237e-259
-1.13898e-258
-4.44995e-258
-1.38384e-257
-3.09706e-257
-1.78521e-257
2.94301e-256
2.14638e-255
1.00268e-254
3.66012e-254
1.04513e-253
1.92763e-253
-1.34258e-253
-3.41725e-252
-2.03251e-251
-8.62209e-251
-2.8852e-250
-7.24294e-250
-8.64997e-250
3.98068e-249
3.70763e-248
1.86381e-247
7.11299e-247
2.12088e-246
4.26815e-246
-5.04153e-247
-5.94598e-245
-3.75212e-244
-1.62552e-243
-5.48949e-243
-1.38083e-242
-1.62789e-242
7.7301e-242
7.08677e-241
3.51714e-240
1.31745e-239
3.79841e-239
6.95884e-239
-5.43812e-239
-1.25959e-237
-7.31428e-237
-3.00744e-236
-9.55838e-236
-2.14077e-235
-1.09309e-235
2.10773e-234
1.48122e-233
6.64121e-233
2.27429e-232
5.73097e-232
6.57629e-232
-3.32327e-231
-2.96017e-230
-1.43703e-229
-5.21372e-229
-1.4165e-228
-2.13742e-228
4.98575e-228
5.92376e-227
3.07895e-226
1.16544e-225
3.31895e-225
5.68896e-225
-7.43624e-225
-1.20536e-223
-6.58713e-223
-2.55986e-222
-7.4699e-222
-1.35041e-221
1.24655e-221
2.52774e-220
1.41521e-219
5.5484e-219
1.62432e-218
2.93251e-218
-2.76171e-218
-5.50425e-217
-3.06016e-216
-1.18765e-215
-3.41273e-215
-5.8195e-215
7.97295e-215
1.24238e-213
6.64699e-213
2.50341e-212
6.8877e-212
1.0256e-211
-2.53483e-211
-2.87533e-210
-1.44128e-209
-5.15964e-209
-1.31704e-208
-1.46071e-208
7.91771e-208
6.71056e-207
3.08751e-206
1.02708e-205
2.32026e-205
1.02764e-205
-2.3337e-204
-1.54981e-203
-6.44059e-203
-1.93517e-202
-3.53721e-202
3.18079e-202
6.4173e-201
3.47387e-200
1.2828e-199
3.33122e-199
3.81469e-199
-1.92161e-198
-1.63742e-197
-7.40118e-197
-2.37013e-196
-4.85601e-196
8.36057e-197
6.61889e-195
3.84574e-194
1.46019e-193
3.8612e-193
4.62525e-193
-2.09826e-192
-1.82508e-191
-8.18724e-191
-2.5613e-190
-4.9009e-190
3.07308e-190
7.93144e-189
4.28754e-188
1.53315e-187
3.66639e-187
2.43367e-187
-3.13115e-186
-2.13393e-185
-8.58252e-185
-2.36259e-184
-3.13895e-184
1.09581e-183
1.0244e-182
4.59008e-182
1.39584e-181
2.42048e-181
-3.19294e-181
-4.81581e-180
-2.381e-179
-7.78391e-179
-1.55205e-178
6.27026e-179
2.25524e-177
1.21191e-176
4.1635e-176
8.95453e-176
2.81166e-177
-1.0715e-174
-6.10533e-174
-2.15551e-173
-4.78573e-173
-9.35636e-174
5.24735e-172
3.0601e-171
1.0844e-170
2.39238e-170
3.54768e-171
-2.66818e-169
-1.52738e-168
-5.29731e-168
-1.11533e-167
1.36364e-168
1.40131e-166
7.56129e-166
2.49826e-165
4.76712e-165
-3.39562e-165
-7.47746e-164
-3.67912e-163
-1.12394e-162
-1.78895e-162
3.46511e-162
3.96472e-161
1.73495e-160
4.72331e-160
5.20563e-160
-2.68928e-159
-2.04037e-158
-7.77525e-158
-1.78446e-157
-5.25326e-158
1.77076e-156
9.95453e-156
3.22004e-155
5.56593e-155
-7.476e-155
-1.02291e-153
-4.48662e-153
-1.17697e-152
-1.04497e-152
7.83475e-152
5.21365e-151
1.80471e-150
3.43567e-150
-2.52497e-150
-5.10329e-149
-2.31516e-148
-6.09977e-148
-5.328e-148
4.01548e-147
2.60082e-146
8.6397e-146
1.48125e-145
-2.00793e-145
-2.59919e-144
-1.06851e-143
-2.47036e-143
-6.78901e-144
2.30737e-142
1.198e-141
3.37551e-141
3.68253e-141
-1.78006e-140
-1.24315e-139
-4.09623e-139
-6.60225e-139
1.11335e-138
1.21107e-137
4.57249e-137
9.07966e-137
-4.20443e-137
-1.12115e-135
-4.78802e-135
-1.08561e-134
-1.93207e-135
9.98452e-134
4.76262e-133
1.17983e-132
6.49514e-133
-8.66893e-132
-4.53827e-131
-1.18958e-130
-9.08734e-131
7.44041e-130
4.16475e-129
1.12394e-128
9.71238e-129
-6.38607e-128
-3.6895e-127
-9.99176e-127
-8.71371e-127
5.50922e-126
3.15347e-125
8.35771e-125
6.65678e-125
-4.75748e-124
-2.59189e-123
-6.55605e-123
-4.18208e-123
4.06203e-122
2.03706e-121
4.79228e-121
1.86012e-121
-3.37313e-120
-1.51967e-119
-3.23267e-119
-8.06123e-121
2.67974e-118
1.06697e-117
1.98352e-117
-9.97193e-118
-2.00804e-116
-6.98547e-116
-1.08198e-115
1.42363e-115
1.40334e-114
4.22237e-114
5.02626e-114
-1.3827e-113
-9.06616e-113
-2.33025e-112
-1.78251e-112
1.09668e-111
5.3761e-111
1.1582e-110
2.68259e-111
-7.49616e-110
-2.90854e-109
-5.08352e-109
2.54849e-109
4.51663e-108
1.42756e-107
1.90283e-107
-3.18091e-107
-2.42613e-106
-6.31825e-106
-5.59071e-106
2.30426e-105
1.16926e-104
2.50237e-104
9.10527e-105
-1.31827e-103
-5.07622e-103
-8.76686e-103
2.6614e-103
6.42936e-102
1.99068e-101
2.66113e-101
-3.40693e-101
-2.75972e-100
-7.06647e-100
-6.68757e-100
2.02551e-99
1.06083e-98
2.27451e-98
1.21245e-98
-9.25134e-98
-3.69452e-97
-6.64844e-97
-4.67472e-98
3.59112e-96
1.17646e-95
1.76756e-95
-8.42221e-96
-1.23336e-94
-3.45371e-94
-4.28305e-94
4.94672e-94
3.83027e-93
9.42391e-93
9.49457e-93
-1.92655e-92
-1.09095e-91
-2.41038e-91
-1.94118e-91
6.15632e-91
2.87975e-90
5.83013e-90
3.72778e-90
-1.71863e-89
-7.1025e-89
-1.34542e-88
-6.98256e-89
4.30631e-88
1.64707e-87
2.9864e-87
1.35697e-87
-9.8102e-87
-3.60738e-86
-6.416e-86
-2.90627e-86
2.04125e-85
7.47958e-85
1.3385e-84
6.90286e-85
-3.86872e-84
-1.46796e-83
-2.71022e-83
-1.72385e-83
6.59481e-83
2.71867e-82
5.30409e-82
4.25552e-82
-9.79452e-82
-4.71845e-81
-9.9596e-81
-9.98261e-81
1.1622e-80
7.57999e-80
1.77646e-79
2.18159e-79
-7.42438e-80
-1.1026e-78
-2.9719e-78
-4.39682e-78
-1.19056e-78
1.39016e-77
4.58507e-77
8.11111e-77
6.08051e-77
-1.3557e-76
-6.36005e-76
-1.35702e-75
-1.56982e-75
5.43656e-76
7.56915e-75
2.02822e-74
3.13406e-74
1.64099e-74
-6.85949e-74
-2.63263e-73
-5.22283e-73
-5.69299e-73
2.38987e-73
2.78523e-72
7.33747e-72
1.15217e-71
7.44916e-72
-1.94973e-71
-8.41306e-71
-1.78259e-70
-2.26014e-70
-3.44171e-71
6.96185e-70
2.17205e-69
3.96066e-69
4.08858e-69
-1.72703e-69
-1.92583e-68
-5.07922e-68
-8.34295e-68
-7.17306e-68
7.36926e-68
4.61636e-67
1.11112e-66
1.71489e-66
1.31071e-66
-1.89891e-66
-9.9965e-66
-2.31598e-65
-3.50727e-65
-2.6655e-65
3.7386e-65
1.98411e-64
4.63201e-64
7.17918e-64
6.06836e-64
-5.47627e-64
-3.59355e-63
-8.85457e-63
-1.45779e-62
-1.4587e-62
3.70809e-63
5.77818e-62
1.59314e-61
2.87704e-61
3.4573e-61
1.11732e-61
-7.63446e-61
-2.61815e-60
-5.36519e-60
-7.69992e-60
-6.04594e-60
6.12287e-60
3.70639e-59
9.11304e-59
1.5591e-58
1.81456e-58
5.80159e-59
-3.87016e-58
-1.33122e-57
-2.77766e-57
-4.19946e-57
-4.0277e-57
7.99948e-58
1.46502e-56
4.12994e-56
7.89022e-56
1.10731e-55
9.26373e-56
-5.6769e-56
-4.48406e-55
-1.17115e-54
-2.16184e-54
-2.97093e-54
-2.44686e-54
1.51815e-54
1.18266e-53
3.09618e-53
5.78534e-53
8.20786e-53
7.56671e-53
-1.45762e-53
-2.66385e-52
-7.58013e-52
-1.49879e-51
-2.29106e-51
-2.51699e-51
-8.96486e-52
4.62894e-51
1.65563e-50
3.64793e-50
6.20459e-50
8.16651e-50
6.72694e-50
-3.24163e-50
-2.91674e-49
-7.88328e-49
-1.54609e-48
-2.41648e-48
-2.8862e-48
-1.82942e-48
2.69852e-48
1.33913e-47
3.29095e-47
6.17289e-47
9.38454e-47
1.09824e-46
6.77733e-47
-1.04636e-46
-5.09312e-46
-1.25325e-45
-2.37718e-45
-3.7079e-45
-4.60882e-45
-3.63225e-45
1.848e-45
1.57958e-44
4.2993e-44
8.70369e-44
1.45707e-43
2.02399e-43
2.1281e-43
8.78399e-44
-3.22072e-43
-1.22821e-42
-2.86514e-42
-5.3708e-42
-8.52681e-42
-1.12937e-41
-1.10986e-41
-2.92237e-42
2.1564e-41
7.41754e-41
1.68439e-40
3.13737e-40
5.02221e-40
6.84655e-40
7.31727e-40
3.8058e-40
-8.25189e-40
-3.57637e-39
-8.76347e-39
-1.72627e-38
-2.93752e-38
-4.36816e-38
-5.50268e-38
-5.13909e-38
-9.64066e-39
1.09209e-37
3.63301e-37
8.27586e-37
1.57795e-36
2.64881e-36
3.94477e-36
5.08134e-36
5.12765e-36
2.23459e-36
-6.83365e-36
-2.71661e-35
-6.59146e-35
-1.31722e-34
-2.32418e-34
-3.6943e-34
-5.26585e-34
-6.5019e-34
-6.16818e-34
-1.85812e-34
1.06347e-33
3.80196e-33
9.00517e-33
1.79387e-32
3.19734e-32
5.20525e-32
7.75237e-32
1.03908e-31
1.19012e-31
9.66761e-32
-1.25858e-32
-2.94413e-31
-8.86274e-31
-1.99303e-30
-3.89494e-30
-6.93248e-30
-1.1439e-29
-1.75707e-29
-2.4952e-29
-3.20097e-29
-3.48148e-29
-2.51853e-29
1.22483e-29
1.0432e-28
2.95144e-28
6.53301e-28
1.27938e-27
2.3112e-27
3.92081e-27
6.29205e-27
9.55816e-27
1.36645e-26
1.80987e-26
2.13981e-26
2.02962e-26
8.3064e-27
-2.65367e-26
-1.05151e-25
-2.6255e-25
-5.5513e-25
-1.07049e-24
-1.93971e-24
-3.35107e-24
-5.56203e-24
-8.90204e-24
-1.37516e-23
-2.0469e-23
-2.9215e-23
-3.95849e-23
-4.98987e-23
-5.58973e-23
-4.84319e-23
-9.4865e-24
9.4522e-23
3.23816e-22
7.83269e-22
1.6513e-21
3.22563e-21
5.99505e-21
1.07506e-20
1.87567e-20
3.20113e-20
5.36401e-20
8.84866e-20
1.43992e-19
2.31499e-19
3.6816e-19
5.79742e-19
9.04683e-19
1.39997e-18
2.14957e-18
3.27651e-18
4.96002e-18
7.45988e-18
1.11506e-17
1.65697e-17
2.44846e-17
3.59862e-17
5.26182e-17
7.6556e-17
1.10852e-16
1.59771e-16
2.29249e-16
3.27518e-16
4.65948e-16
6.60183e-16
9.31678e-16
1.30975e-15
1.83431e-15
2.55953e-15
3.55869e-15
4.93057e-15
6.80794e-15
9.36867e-15
1.28503e-14
1.75692e-14
2.39455e-14
3.2535e-14
4.40718e-14
5.95221e-14
8.01541e-14
1.07628e-13
1.44111e-13
1.92427e-13
2.5624e-13
3.40299e-13
4.50739e-13
5.95469e-13
7.84655e-13
1.03134e-12
1.3522e-12
1.76854e-12
2.30747e-12
3.00346e-12
3.90017e-12
5.05285e-12
6.5312e-12
8.42298e-12
1.08385e-11
1.39159e-11
1.78282e-11
2.27913e-11
2.90741e-11
3.7011e-11
4.70166e-11
5.96047e-11
7.54096e-11
9.5214e-11
1.19981e-10
1.50893e-10
1.89402e-10
2.37281e-10
2.96699e-10
3.70297e-10
4.61292e-10
5.73589e-10
7.11923e-10
8.82023e-10
1.09081e-09
1.34663e-09
1.65954e-09
2.04159e-09
2.50729e-09
3.07396e-09
3.76235e-09
4.59719e-09
5.60796e-09
6.82974e-09
8.30416e-09
1.00806e-08
1.22175e-08
1.47838e-08
1.78612e-08
2.15455e-08
2.59497e-08
3.12062e-08
3.74706e-08
4.49247e-08
5.37812e-08
6.42884e-08
7.67354e-08
9.14589e-08
1.0885e-07
1.29362e-07
1.53521e-07
1.81934e-07
2.15304e-07
2.5444e-07
3.00277e-07
3.53885e-07
4.16498e-07
4.89528e-07
5.74594e-07
6.73547e-07
7.88501e-07
9.21866e-07
1.07639e-06
1.2552e-06
1.46183e-06
1.70032e-06
1.97523e-06
2.29171e-06
2.65559e-06
3.07345e-06
3.55271e-06
4.1017e-06
4.7298e-06
5.44754e-06
6.26671e-06
7.20054e-06
8.2638e-06
9.47299e-06
1.08465e-05
1.24049e-05
1.4171e-05
1.617e-05
1.84303e-05
2.0983e-05
2.38626e-05
2.71073e-05
3.07594e-05
3.48655e-05
3.94767e-05
4.46497e-05
5.04464e-05
5.69351e-05
6.41904e-05
7.22943e-05
8.13363e-05
9.14142e-05
0.000102635
0.000115115
0.000128981
0.000144371
0.000161436
0.000180336
0.00020125
0.000224368
0.000249896
0.000278057
0.000309093
0.000343261
0.000380843
0.000422137
0.000467466
0.000517177
0.00057164
0.000631253
0.000696439
0.000767652
0.000845377
0.000930128
0.00102245
0.00112294
0.0012322
0.0013509
0.00147973
0.00161944
0.00177079
0.00193462
0.00211179
0.00230322
0.00250987
0.00273276
0.00297294
0.00323155
0.00350974
0.00380874
0.00412983
0.00447434
0.00484368
0.00523929
0.00566268
0.00611542
0.00659914
0.00711553
0.00766635
0.00825339
0.00887854
0.00954371
0.0102509
0.0110021
0.0117995
0.0126453
0.0135415
0.0144906
0.0154947
0.0165564
0.0176779
0.0188617
0.0201104
0.0214264
0.0228124
0.0242709
0.0258045
0.027416
0.0291078
0.0308829
0.0327437
0.0346931
0.0367337
0.0388681
0.0410992
0.0434295
0.0458616
0.0483982
0.0510419
0.0537951
0.0566604
0.0596402
0.0627368
0.0659525
0.0692895
0.0727501
0.0763362
0.0800498
0.0838928
0.0878668
0.0919736
0.0962147
0.100592
0.105108
0.109774
0.114651
)
;

boundaryField
{
    sides
    {
        type            zeroGradient;
    }
    empty
    {
        type            empty;
    }
}


// ************************************************************************* //
