/*--------------------------------*- C++ -*----------------------------------*\
| =========                 |                                                 |
| \\      /  F ield         | OpenFOAM: The Open Source CFD Toolbox           |
|  \\    /   O peration     | Version:  v2012                                 |
|   \\  /    A nd           | Website:  www.openfoam.com                      |
|    \\/     M anipulation  |                                                 |
\*---------------------------------------------------------------------------*/
FoamFile
{
    version     2.0;
    format      ascii;
    class       volScalarField;
    location    "0.06";
    object      T;
}
// * * * * * * * * * * * * * * * * * * * * * * * * * * * * * * * * * * * * * //

dimensions      [0 0 0 1 0 0 0];


internalField   nonuniform List<scalar> 
1000
(
0
0
0
0
0
0
0
0
0
0
0
0
0
0
0
0
0
0
0
0
0
0
0
0
0
0
0
0
0
0
0
0
0
0
0
0
0
0
0
0
0
0
0
0
0
0
0
0
0
0
0
0
0
0
0
0
0
0
0
0
0
0
0
0
0
0
0
0
0
0
0
0
0
0
0
0
0
0
0
0
0
0
0
0
0
0
0
0
0
0
0
0
0
0
0
0
0
0
0
0
0
0
0
0
0
0
0
0
0
0
0
0
0
0
0
0
0
0
0
0
0
0
0
0
0
0
0
0
0
0
0
0
0
0
0
0
0
0
0
0
0
0
0
0
0
0
0
0
0
0
0
0
0
0
0
0
0
0
0
0
0
0
0
0
0
0
0
0
0
0
0
0
0
0
0
0
0
0
0
0
0
0
0
0
0
0
0
0
0
0
0
0
0
0
0
0
0
0
0
0
0
0
0
0
0
0
0
0
0
0
0
0
0
0
0
0
0
0
0
0
0
0
0
0
0
0
0
0
0
0
0
0
0
0
0
0
0
0
0
0
0
0
0
0
0
0
0
0
0
0
0
0
0
0
0
0
0
0
0
0
0
0
0
0
0
0
0
0
0
0
0
0
0
0
0
0
0
0
0
0
0
0
0
0
0
0
0
0
0
0
0
0
0
0
0
0
0
0
0
0
0
0
0
0
0
0
0
0
0
0
0
0
0
0
0
0
0
0
0
0
0
0
0
0
0
0
0
0
0
0
0
0
0
0
0
0
0
0
0
0
0
0
0
0
0
0
0
0
0
0
0
0
0
0
0
0
0
0
0
0
0
0
0
0
0
0
0
0
0
0
0
0
0
0
0
0
0
0
0
0
0
0
0
0
0
0
0
0
0
0
0
0
0
0
0
0
0
0
0
0
0
0
0
0
0
0
0
0
0
0
0
0
0
0
0
0
0
0
0
0
0
0
0
0
0
0
0
0
0
0
0
0
0
0
0
0
0
0
0
0
0
0
0
0
0
0
0
0
0
0
0.00770735
0.0385367
0.105334
0.20924
0.339123
0.477665
0.60851
0.720663
0.809451
0.87522
0.921258
0.95195
0.971559
0.983626
0.990809
0.994959
0.997293
0.998575
0.999263
0.999625
0.999812
0.999907
0.999955
0.999978
0.99999
0.999995
0.999998
0.999999
1
1
1
1
1
1
1
1
1
1
1
1
1
1
1
1
1
1
1
1
1
1
1
1
1
1
1
1
1
1
1
1
1
1
1
1
1
1
1
1
1
1
1
1
1
1
1
1
1
1
1
1
1
1
1
1
1
1
1
1
1
1
1
1
1
1
1
1
1
1
1
1
0.992293
0.961463
0.894666
0.79076
0.660877
0.522335
0.39149
0.279337
0.190549
0.12478
0.078742
0.04805
0.0284411
0.0163742
0.00919144
0.00504142
0.00270704
0.00142542
0.000737137
0.000374885
0.000187722
9.26546e-05
4.5121e-05
2.16986e-05
1.03128e-05
4.84755e-06
2.25508e-06
1.03885e-06
4.7418e-07
2.14559e-07
9.62875e-08
4.28745e-08
1.89499e-08
8.3168e-09
3.62571e-09
1.57057e-09
6.76202e-10
2.89448e-10
1.23212e-10
5.21705e-11
2.1978e-11
9.21365e-12
3.84454e-12
1.59701e-12
6.60532e-13
2.72069e-13
1.11617e-13
4.56153e-14
1.8573e-14
7.5353e-15
3.04665e-15
1.22772e-15
4.93147e-16
1.97472e-16
7.88364e-17
3.13823e-17
1.24572e-17
4.93137e-18
1.947e-18
7.66746e-19
3.012e-19
1.18035e-19
4.61473e-20
1.80008e-20
7.00609e-21
2.72098e-21
1.05454e-21
4.07867e-22
1.57439e-22
6.0655e-23
2.33241e-23
8.95254e-24
3.43014e-24
1.31196e-24
5.0095e-25
1.90962e-25
7.26769e-26
2.7616e-26
1.04774e-26
3.96914e-27
1.50141e-27
5.67122e-28
2.13916e-28
8.05777e-29
3.03111e-29
1.13872e-29
4.27244e-30
1.60098e-30
5.99187e-31
2.23982e-31
8.3628e-32
3.1188e-32
1.1618e-32
4.32305e-33
1.60686e-33
5.96622e-34
2.21293e-34
8.19954e-35
3.0351e-35
1.12235e-35
4.14631e-36
1.53032e-36
5.6428e-37
2.07879e-37
7.65127e-38
2.81367e-38
1.03379e-38
3.79512e-39
1.39204e-39
5.10175e-40
1.86825e-40
6.83603e-41
2.49939e-41
9.1312e-42
3.33345e-42
1.216e-42
4.4326e-43
1.61461e-43
5.87719e-44
2.1378e-44
7.77083e-45
2.82275e-45
1.02468e-45
3.71724e-46
1.34763e-46
4.88253e-47
1.76786e-47
6.39707e-48
2.3134e-48
8.36103e-49
3.02004e-49
1.09022e-49
3.93336e-50
1.41831e-50
5.11132e-51
1.84102e-51
6.62746e-52
2.38454e-52
8.57498e-53
3.08202e-53
1.10717e-53
3.97536e-54
1.42666e-54
5.11741e-55
1.83472e-55
6.57476e-56
2.35497e-56
8.43118e-57
3.01711e-57
1.07918e-57
3.85838e-58
1.37887e-58
4.92548e-59
1.75868e-59
6.27684e-60
2.2393e-60
7.98548e-61
2.8465e-61
1.01425e-61
3.61248e-62
1.28615e-62
4.5773e-63
1.62839e-63
5.79082e-64
2.05853e-64
7.31498e-65
2.59841e-65
9.22665e-66
3.27509e-66
1.16211e-66
4.1221e-67
1.46163e-67
5.18091e-68
1.83581e-68
6.50281e-69
2.30266e-69
8.15109e-70
2.88443e-70
1.02038e-70
3.6085e-71
1.27572e-71
4.50864e-72
1.59295e-72
5.62634e-73
1.98663e-73
7.01261e-74
2.47464e-74
8.73006e-75
3.0789e-75
1.08555e-75
3.82631e-76
1.3483e-76
4.74979e-77
1.67279e-77
5.88963e-78
2.07309e-78
7.29509e-79
2.56642e-79
9.02635e-80
3.17382e-80
1.11568e-80
3.92092e-81
1.37761e-81
4.83899e-82
1.69932e-82
5.96609e-83
2.0941e-83
7.34854e-84
2.57811e-84
9.04268e-85
3.17097e-85
1.1117e-85
3.89654e-86
1.36544e-86
4.78377e-87
1.67559e-87
5.86775e-88
2.05437e-88
7.19101e-89
2.51656e-89
8.80506e-90
3.0801e-90
1.07722e-90
3.76666e-91
1.31679e-91
4.60244e-92
1.60831e-92
5.61909e-93
1.96279e-93
6.85482e-94
2.3935e-94
8.35574e-95
2.91644e-95
1.01774e-95
3.55091e-96
1.23868e-96
4.32015e-97
1.50646e-97
5.25213e-98
1.83077e-98
6.3805e-99
2.2233e-99
7.74574e-100
2.69806e-100
9.39644e-101
3.2719e-101
1.1391e-101
3.96506e-102
1.37995e-102
4.80179e-103
1.6706e-103
5.81122e-104
2.02112e-104
7.02821e-105
2.44359e-105
8.49456e-106
2.95247e-106
1.02603e-106
3.56506e-107
1.23853e-107
4.30206e-108
1.49411e-108
5.18824e-109
1.80133e-109
6.25317e-110
2.17042e-110
7.5322e-111
2.61358e-111
9.06749e-112
3.1454e-112
1.09094e-112
3.78324e-113
1.3118e-113
4.54786e-114
1.57648e-114
5.46396e-115
1.89351e-115
6.56096e-116
2.27305e-116
7.87394e-117
2.7272e-117
9.4446e-118
3.27034e-118
1.13226e-118
3.91959e-119
1.35669e-119
4.69531e-120
1.62477e-120
5.62168e-121
1.94484e-121
6.72742e-122
2.3268e-122
8.04666e-123
2.78239e-123
9.61987e-124
3.32558e-124
1.14951e-124
3.97289e-125
1.37293e-125
4.74394e-126
1.639e-126
5.66199e-127
1.95573e-127
6.75458e-128
2.33259e-128
8.05433e-129
2.78081e-129
9.59985e-130
3.31367e-130
1.14368e-130
3.94689e-131
1.36194e-131
4.69907e-132
1.62114e-132
5.59218e-133
1.92884e-133
6.65221e-134
2.29398e-134
7.90984e-135
2.7271e-135
9.40133e-136
3.24066e-136
1.11695e-136
3.84936e-137
1.32648e-137
4.57055e-138
1.57468e-138
5.4247e-139
1.8686e-139
6.43594e-140
2.2165e-140
7.63273e-141
2.62816e-141
9.04859e-142
3.11508e-142
1.0723e-142
3.69083e-143
1.27025e-143
4.37136e-144
1.50419e-144
5.17546e-145
1.78055e-145
6.12523e-146
2.10693e-146
7.2467e-147
2.49225e-147
8.57044e-148
2.94698e-148
1.01324e-148
3.48347e-149
1.19749e-149
4.11619e-150
1.41476e-150
4.86218e-151
1.67087e-151
5.74141e-152
1.97269e-152
6.77737e-153
2.32825e-153
7.99761e-154
2.74698e-154
9.43446e-155
3.23998e-155
1.11258e-155
3.82022e-156
1.31162e-156
4.50294e-157
1.54578e-157
5.30599e-158
1.82117e-158
6.25031e-159
2.14496e-159
7.36042e-160
2.52553e-160
8.66504e-161
2.97273e-161
1.01978e-161
3.49806e-162
1.19982e-162
4.115e-163
1.41122e-163
4.83932e-164
1.65937e-164
5.68948e-165
1.95061e-165
6.68706e-166
2.29229e-166
7.85731e-167
2.69307e-167
9.22975e-168
3.16302e-168
1.08389e-168
3.71395e-169
1.2725e-169
4.35964e-170
1.49353e-170
5.11618e-171
1.75247e-171
6.00239e-172
2.05575e-172
7.04023e-173
2.41087e-173
8.25532e-174
2.8266e-174
9.67758e-175
3.31315e-175
1.13419e-175
3.88244e-176
1.32891e-176
4.54839e-177
1.55666e-177
5.32722e-178
1.82298e-178
6.23785e-179
2.13433e-179
7.30231e-180
2.49823e-180
8.54631e-181
2.92347e-181
9.9998e-182
3.42025e-182
1.16977e-182
4.00049e-183
1.36805e-183
4.67805e-184
1.59957e-184
5.46908e-185
1.86982e-185
6.39237e-186
2.18523e-186
7.46979e-187
2.55326e-187
8.7268e-188
2.98258e-188
1.0193e-188
3.48329e-189
1.19029e-189
4.06716e-190
1.38965e-190
4.74784e-191
1.62204e-191
5.54121e-192
1.89288e-192
6.46573e-193
2.20846e-193
7.54288e-194
2.5761e-194
8.79758e-195
3.00429e-195
1.02588e-195
)
;

boundaryField
{
    sides
    {
        type            inletOutlet;
        inletValue      uniform 0;
        value           nonuniform List<scalar> 2(1.02588e-195 0);
    }
    empty
    {
        type            empty;
    }
}


// ************************************************************************* //
