/*--------------------------------*- C++ -*----------------------------------*\
| =========                 |                                                 |
| \\      /  F ield         | OpenFOAM: The Open Source CFD Toolbox           |
|  \\    /   O peration     | Version:  v2012                                 |
|   \\  /    A nd           | Website:  www.openfoam.com                      |
|    \\/     M anipulation  |                                                 |
\*---------------------------------------------------------------------------*/
FoamFile
{
    version     2.0;
    format      ascii;
    class       volScalarField;
    location    "0.06";
    object      T;
}
// * * * * * * * * * * * * * * * * * * * * * * * * * * * * * * * * * * * * * //

dimensions      [0 0 0 1 0 0 0];


internalField   nonuniform List<scalar> 
1000
(
5.78645e-262
-2.83128e-261
1.16001e-260
-4.79846e-260
1.98369e-259
-8.20042e-259
3.3898e-258
-1.40116e-257
5.79135e-257
-2.39357e-256
9.89212e-256
-4.08797e-255
1.68928e-254
-6.98028e-254
2.88416e-253
-1.19163e-252
4.92307e-252
-2.0338e-251
8.40147e-251
-3.47038e-250
1.43342e-249
-5.92032e-249
2.44507e-248
-1.00975e-247
4.16972e-247
-1.72178e-246
7.10919e-246
-2.9352e-245
1.2118e-244
-5.00259e-244
2.06507e-243
-8.52407e-243
3.5183e-242
-1.45209e-241
5.99273e-241
-2.47304e-240
1.02049e-239
-4.21076e-239
1.73734e-238
-7.16772e-238
2.95699e-237
-1.21981e-236
5.03159e-236
-2.07535e-235
8.55949e-235
-3.53002e-234
1.45572e-233
-6.00274e-233
2.4751e-232
-1.02049e-231
4.2072e-231
-1.7344e-230
7.14953e-230
-2.94697e-229
1.21463e-228
-5.0059e-228
2.06296e-227
-8.50099e-227
3.50282e-226
-1.44323e-225
5.946e-225
-2.44953e-224
1.00904e-223
-4.15628e-223
1.71186e-222
-7.05021e-222
2.90338e-221
-1.19557e-220
4.92281e-220
-2.02684e-219
8.3444e-219
-3.43508e-218
1.41399e-217
-5.82003e-217
2.39536e-216
-9.85785e-216
4.05659e-215
-1.66919e-214
6.86782e-214
-2.82552e-213
1.16237e-212
-4.78138e-212
1.96667e-211
-8.08859e-211
3.32645e-210
-1.3679e-209
5.62462e-209
-2.31258e-208
9.50746e-208
-3.90838e-207
1.60655e-206
-6.60321e-206
2.71382e-205
-1.11524e-204
4.58271e-204
-1.88295e-203
7.73601e-203
-3.17804e-202
1.30546e-201
-5.36205e-201
2.20222e-200
-9.04382e-200
3.71369e-199
-1.52483e-198
6.26034e-198
-2.57002e-197
1.05496e-196
-4.33007e-196
1.77711e-195
-7.29282e-195
2.99252e-194
-1.22783e-193
5.0373e-193
-2.06642e-192
8.47611e-192
-3.47644e-191
1.42571e-190
-5.84637e-190
2.39717e-189
-9.82813e-189
4.02902e-188
-1.65153e-187
6.76908e-187
-2.77415e-186
1.13681e-185
-4.65802e-185
1.90841e-184
-7.81802e-184
3.20242e-183
-1.31164e-182
5.37164e-182
-2.19965e-181
9.00646e-181
-3.68731e-180
1.50945e-179
-6.17848e-179
2.5287e-178
-1.03483e-177
4.23438e-177
-1.73246e-176
7.08747e-176
-2.89914e-175
1.18577e-174
-4.84933e-174
1.98296e-173
-8.1077e-173
3.3146e-172
-1.35492e-171
5.53793e-171
-2.26324e-170
9.24829e-170
-3.77869e-169
1.54373e-168
-6.30589e-168
2.57556e-167
-1.05182e-166
4.29498e-166
-1.75358e-165
7.15875e-165
-2.92209e-164
1.19261e-163
-4.86681e-163
1.98581e-162
-8.10166e-162
3.30487e-161
-1.34797e-160
5.49727e-160
-2.2416e-159
9.13925e-159
-3.72568e-158
1.5186e-157
-6.189e-157
2.52196e-156
-1.02754e-155
4.18598e-155
-1.70504e-154
6.94406e-154
-2.82768e-153
1.15129e-152
-4.6868e-152
1.90768e-151
-7.76377e-151
3.15919e-150
-1.28533e-149
5.22864e-149
-2.12666e-148
8.64853e-148
-3.51658e-147
1.42966e-146
-5.81133e-146
2.36185e-145
-9.59758e-145
3.89944e-144
-1.58407e-143
6.43391e-143
-2.61281e-142
1.06088e-141
-4.30683e-141
1.74814e-140
-7.09451e-140
2.87869e-139
-1.16787e-138
4.73719e-138
-1.9212e-137
7.79018e-137
-3.15826e-136
1.28018e-135
-5.18822e-135
2.10226e-134
-8.51683e-134
3.44977e-133
-1.39708e-132
5.65684e-132
-2.29005e-131
9.26905e-131
-3.75096e-130
1.51764e-129
-6.13915e-129
2.48293e-128
-1.00401e-127
4.05904e-127
-1.64068e-126
6.63033e-126
-2.67892e-125
1.08217e-124
-4.3706e-124
1.76481e-123
-7.12463e-123
2.87565e-122
-1.16042e-121
4.68169e-121
-1.88841e-120
7.6154e-120
-3.07039e-119
1.23765e-118
-4.98776e-118
2.00962e-117
-8.0951e-117
3.26009e-116
-1.31261e-115
5.28374e-115
-2.12639e-114
8.55538e-114
-3.44136e-113
1.38394e-112
-5.56409e-112
2.23647e-111
-8.98719e-111
3.61056e-110
-1.45015e-109
5.82289e-109
-2.3375e-108
9.381e-108
-3.76384e-107
1.50972e-106
-6.054e-106
2.427e-105
-9.72694e-105
3.89728e-104
-1.56107e-103
6.25116e-103
-2.50249e-102
1.00151e-101
-4.00695e-101
1.60266e-100
-6.40823e-100
2.56154e-99
-1.0236e-98
4.0891e-98
-1.633e-97
6.51939e-97
-2.60189e-96
1.03807e-95
-4.14024e-95
1.65074e-94
-6.5794e-94
2.62148e-93
-1.04414e-92
4.15736e-92
-1.65473e-91
6.58384e-91
-2.61865e-90
1.04116e-89
-4.13807e-89
1.64406e-88
-6.52939e-88
2.59217e-87
-1.02869e-86
4.08075e-86
-1.61816e-85
6.41404e-85
-2.54136e-84
1.00652e-83
-3.98472e-83
1.57686e-82
-6.23739e-82
2.46619e-81
-9.74678e-81
3.85039e-80
-1.52039e-79
6.00077e-79
-2.36734e-78
9.335e-78
-3.67928e-77
1.44946e-76
-5.70739e-76
2.24625e-75
-8.83615e-75
3.47416e-74
-1.36526e-73
5.36238e-73
-2.10509e-72
8.25954e-72
-3.23896e-71
1.26946e-70
-4.9727e-70
1.9468e-69
-7.61734e-69
2.97875e-68
-1.16415e-67
4.54704e-67
-1.77494e-66
6.92427e-66
-2.69956e-65
1.05181e-64
-4.09548e-64
1.59364e-63
-6.19706e-63
2.40819e-62
-9.35188e-62
3.62916e-61
-1.40737e-60
5.45379e-60
-2.1119e-59
8.17196e-59
-3.15975e-58
1.22081e-57
-4.71308e-57
1.8181e-56
-7.00782e-56
2.69893e-55
-1.03858e-54
3.99318e-54
-1.53399e-53
5.88772e-53
-2.25778e-52
8.65013e-52
-3.31101e-51
1.26616e-50
-4.83723e-50
1.84621e-49
-7.0393e-49
2.68125e-48
-1.02022e-47
3.87783e-47
-1.47237e-46
5.58424e-46
-2.11555e-45
8.00545e-45
-3.02579e-44
1.14228e-43
-4.30699e-43
1.62194e-42
-6.10016e-42
2.2913e-41
-8.59498e-41
3.2197e-40
-1.20443e-39
4.49914e-39
-1.6782e-38
6.25043e-38
-2.32441e-37
8.63049e-37
-3.19936e-36
1.18407e-35
-4.37482e-35
1.61359e-34
-5.94098e-34
2.1834e-33
-8.0094e-33
2.93248e-32
-1.07156e-31
3.90771e-31
-1.42208e-30
5.16418e-30
-1.87122e-29
6.76499e-29
-2.44005e-28
8.77994e-28
-3.15146e-27
1.12831e-26
-4.02906e-26
1.43484e-25
-5.09556e-25
1.80437e-24
-6.37034e-24
2.24213e-23
-7.86635e-23
2.75074e-22
-9.58607e-22
3.32882e-21
-1.15171e-20
3.96949e-20
-1.36271e-19
4.65888e-19
-1.58597e-18
5.37489e-18
-1.8131e-17
6.08646e-17
-2.03285e-16
6.75377e-16
-2.23141e-15
7.32982e-15
-2.39312e-14
7.7636e-14
-2.50177e-13
8.00506e-13
-2.54244e-12
8.01174e-12
-2.50379e-11
7.75631e-11
-2.38048e-10
7.23395e-10
-2.17525e-09
6.46782e-09
-1.90013e-08
5.51075e-08
-1.57622e-07
4.44156e-07
-1.2315e-06
3.35515e-06
-8.96783e-06
2.34735e-05
-6.0045e-05
0.000149737
-0.000362991
0.000852502
-0.00193173
0.00420206
-0.00871995
0.0171241
-0.0314873
0.0534288
-0.0819123
0.109748
-0.121025
0.0955687
-0.0277705
-0.0458191
0.0506764
0.0335517
-0.0629438
-0.0809923
0.0423469
0.258941
0.489714
0.681374
0.816715
0.901631
0.950242
0.976086
0.989009
0.995142
0.997927
0.999142
0.999655
0.999865
0.999948
0.99998
0.999993
0.999997
0.999999
1
1
1
1
1
1
1
1
1
1
1
1
1
1
1
1
1
1
1
1
1
1
1
1
1
1
1
1
1
1
1
1
1
1
1
1
1
1
1
1
1
1
1
1
1
1
1
1
1
1
1
1
1
1
1
1
1
1
0.999997
1.00001
0.999977
1.00006
0.99985
1.00036
0.999147
1.00193
0.995798
1.00872
0.982876
1.03149
0.946571
1.08191
0.890252
1.12103
0.904431
1.02777
1.04582
0.949324
0.966448
1.06294
1.08099
0.957653
0.741059
0.510286
0.318626
0.183285
0.0983689
0.0497575
0.0239135
0.0109915
0.00485771
0.00207348
0.000857982
0.000345254
0.000135472
5.19536e-05
1.95123e-05
7.18935e-06
2.60271e-06
9.27056e-07
3.25278e-07
1.12548e-07
3.8439e-08
1.29698e-08
4.32677e-09
1.42813e-09
4.66684e-10
1.51073e-10
4.84719e-11
1.54222e-11
4.86799e-12
1.52505e-12
4.74364e-13
1.46551e-13
4.49842e-14
1.37232e-14
4.16197e-15
1.25518e-15
3.76514e-16
1.12364e-16
3.33688e-17
9.86292e-18
2.90206e-18
8.50199e-19
2.4804e-19
7.2074e-20
2.0862e-20
6.01612e-21
1.72869e-21
4.95011e-22
1.41273e-22
4.01887e-23
1.1397e-23
3.22233e-24
9.08406e-25
2.55366e-25
7.15907e-26
2.0017e-26
5.58243e-27
1.55298e-27
4.30978e-28
1.19323e-28
3.29612e-29
9.08487e-30
2.4986e-30
6.85749e-31
1.87822e-31
5.13413e-32
1.40071e-32
3.81425e-33
1.03675e-33
2.81297e-34
7.61901e-35
2.06012e-35
5.5612e-36
1.49879e-36
4.03299e-37
1.08354e-37
2.90674e-38
7.78628e-39
2.08271e-39
5.56312e-40
1.48392e-40
3.95293e-41
1.05162e-41
2.79407e-42
7.41429e-43
1.96502e-43
5.20164e-44
1.37531e-44
3.63211e-45
9.58129e-46
2.52468e-46
6.64533e-47
1.74728e-47
4.58938e-48
1.2042e-48
3.15651e-49
8.26582e-50
2.16244e-50
5.65181e-51
1.4758e-51
3.85005e-52
1.0035e-52
2.61325e-53
6.79936e-54
1.7676e-54
4.59132e-55
1.1916e-55
3.09011e-56
8.00702e-57
2.07314e-57
5.36352e-58
1.38658e-58
3.5819e-59
9.24624e-60
2.38509e-60
6.14801e-61
1.58366e-61
4.07653e-62
1.04864e-62
2.69571e-63
6.92523e-64
1.77793e-64
4.56163e-65
1.16964e-65
2.99722e-66
7.67573e-67
1.96454e-67
5.02512e-68
1.28463e-68
3.28218e-69
8.38109e-70
2.13893e-70
5.45576e-71
1.39084e-71
3.5438e-72
9.02468e-73
2.29704e-73
5.84364e-74
1.48586e-74
3.77622e-75
9.59228e-76
2.43543e-76
6.18048e-77
1.5677e-77
3.97468e-78
1.00726e-78
2.55142e-79
6.45993e-80
1.63486e-80
4.13566e-81
1.04573e-81
2.64309e-82
6.67759e-83
1.68635e-83
4.25691e-84
1.07416e-84
2.70935e-85
6.83109e-86
1.72165e-86
4.33743e-87
1.09233e-87
2.74986e-88
6.91999e-89
1.74076e-89
4.37739e-90
1.10036e-90
2.76502e-91
6.94559e-92
1.74409e-92
4.37802e-93
1.0986e-93
2.75584e-94
6.91072e-95
1.73241e-95
4.34145e-96
1.08763e-96
2.72386e-97
6.81952e-98
1.70682e-98
4.27056e-99
1.0682e-99
2.67107e-100
6.67711e-101
1.66864e-101
4.1688e-102
1.0412e-102
2.59974e-103
6.48936e-104
1.61939e-104
4.04001e-105
1.00761e-105
2.51236e-106
6.26261e-107
1.56067e-107
3.88825e-108
9.68459e-109
2.41155e-109
6.00341e-110
1.49413e-110
3.71767e-111
9.24793e-112
2.2999e-112
5.71832e-113
1.42142e-113
3.5324e-114
8.77635e-115
2.17999e-115
5.41371e-116
1.34411e-116
3.33636e-117
8.27967e-118
2.05426e-118
5.09564e-119
1.26371e-119
3.13328e-120
7.76707e-121
1.92496e-121
4.76971e-122
1.1816e-122
2.92656e-123
7.24693e-124
1.79416e-124
4.44098e-125
1.09903e-125
2.71925e-126
6.72674e-127
1.66369e-127
4.11393e-128
1.01708e-128
2.51403e-129
6.21302e-130
1.53516e-130
3.79245e-131
9.36712e-132
2.31319e-132
5.71134e-133
1.40989e-133
3.47979e-134
8.58703e-135
2.11863e-135
5.22628e-136
1.289e-136
3.17861e-137
7.83695e-138
1.93189e-138
4.76151e-139
1.17337e-139
2.89101e-140
7.12187e-141
1.75415e-141
4.31985e-142
1.06365e-142
2.61856e-143
6.44547e-144
1.58627e-144
3.90332e-145
9.60333e-146
2.36234e-146
5.81027e-147
1.42884e-147
3.51323e-148
8.637e-149
2.12302e-149
5.21774e-150
1.28217e-150
3.15026e-151
7.73899e-152
1.9009e-152
4.66845e-153
1.14637e-153
2.81459e-154
6.90947e-155
1.69596e-155
4.16221e-156
1.02135e-156
2.50592e-157
6.14751e-158
1.50791e-158
3.69821e-159
9.06882e-160
2.22358e-160
5.45129e-161
1.33626e-161
3.27509e-162
8.02606e-163
1.96665e-163
4.81832e-164
1.18035e-164
2.89115e-165
7.08073e-166
1.73393e-166
4.24554e-167
1.0394e-167
2.54436e-168
6.22763e-169
1.52411e-169
3.72956e-170
9.12535e-171
2.23249e-171
5.46111e-172
1.33574e-172
3.26673e-173
7.9883e-174
1.9532e-174
4.77521e-175
1.16732e-175
2.85323e-176
6.97329e-177
1.70408e-177
4.16387e-178
1.01732e-178
2.48525e-179
6.07067e-180
1.48271e-180
3.62104e-181
8.84225e-182
2.15898e-182
5.27094e-183
1.28672e-183
3.14076e-184
7.66554e-185
1.87071e-185
4.56485e-186
1.11379e-186
2.7173e-187
6.62872e-188
1.61688e-188
3.94354e-189
9.61725e-190
2.34517e-190
5.71816e-191
1.39411e-191
3.39858e-192
8.28431e-193
2.01918e-193
4.921e-194
1.1992e-194
2.92207e-195
7.11951e-196
1.73448e-196
4.22523e-197
1.02918e-197
2.50666e-198
6.10465e-199
1.48658e-199
3.61973e-200
8.81307e-201
2.14556e-201
5.22296e-202
1.27132e-202
3.09426e-203
7.53048e-204
1.83253e-204
4.45906e-205
1.08493e-205
2.63949e-206
6.42103e-207
1.5619e-207
3.79898e-208
9.23945e-209
2.24693e-209
5.46384e-210
1.32853e-210
3.23007e-211
7.85268e-212
1.90893e-212
4.6401e-213
1.1278e-213
2.74095e-214
6.66099e-215
1.61861e-215
3.93291e-216
9.55546e-217
2.32144e-217
5.63937e-218
1.36984e-218
3.32721e-219
8.08085e-220
1.96246e-220
4.76557e-221
1.15717e-221
2.80962e-222
6.8213e-223
1.65598e-223
4.01988e-224
9.75753e-225
2.3683e-225
5.74781e-226
1.39488e-226
3.38488e-227
8.21334e-228
1.99281e-228
4.83484e-229
1.17292e-229
2.84529e-230
6.90169e-231
1.674e-231
4.05999e-232
9.84617e-233
2.3877e-233
5.78982e-234
1.40385e-234
3.40369e-235
8.25182e-236
2.00042e-236
4.84916e-237
1.17539e-237
2.84887e-238
6.90453e-239
1.67328e-239
4.05487e-240
9.82555e-241
2.38073e-241
5.76816e-242
1.39745e-242
3.38541e-243
8.20085e-244
1.98646e-244
4.81144e-245
1.16532e-245
2.8222e-246
6.83446e-247
1.65499e-247
4.0074e-248
9.70293e-249
2.34919e-249
5.68734e-250
1.37681e-250
3.33284e-251
8.06733e-252
1.95263e-252
4.72593e-253
1.14374e-253
2.76787e-254
6.69791e-255
1.62072e-255
3.9215e-256
9.48798e-257
2.29546e-257
5.55321e-258
1.34336e-258
3.24952e-259
7.86023e-260
1.90013e-260
4.63759e-261
9.47787e-262
)
;

boundaryField
{
    sides
    {
        type            inletOutlet;
        inletValue      uniform 0;
        value           nonuniform List<scalar> 2(9.47787e-262 0);
    }
    empty
    {
        type            empty;
    }
}


// ************************************************************************* //
