/*--------------------------------*- C++ -*----------------------------------*\
| =========                 |                                                 |
| \\      /  F ield         | OpenFOAM: The Open Source CFD Toolbox           |
|  \\    /   O peration     | Version:  v2012                                 |
|   \\  /    A nd           | Website:  www.openfoam.com                      |
|    \\/     M anipulation  |                                                 |
\*---------------------------------------------------------------------------*/
FoamFile
{
    version     2.0;
    format      ascii;
    class       volScalarField;
    location    "1";
    object      T;
}
// * * * * * * * * * * * * * * * * * * * * * * * * * * * * * * * * * * * * * //

dimensions      [0 0 0 1 0 0 0];


internalField   nonuniform List<scalar> 
1000
(
0
0
0
0
0
0
0
0
0
0
0
0
0
0
0
0
0
0
0
0
0
0
0
0
0
0
0
0
0
0
0
0
0
0
0
0
0
0
0
0
0
0
0
0
0
0
0
0
0
0
0
0
0
0
0
0
0
0
0
0
0
0
0
0
0
0
0
0
0
0
0
0
0
0
0
0
0
0
0
0
0
0
0
0
0
0
0
0
0
0
0
0
0
0
0
0
0
0
0
0
0
0
0
0
0
0
0
0
0
0
0
0
0
0
0
0
0
0
0
0
0
0
0
0
0
0
0
0
0
0
0
0
0
0
0
0
0
0
0
0
0
0
0
0
0
0
0
0
0
0
0
0
0
0
0
0
0
0
0
0
0
0
0
0
0
0
0
0
0
0
0
0
0
0
0
0
0
0
0
0
0
0
0
0
0
0
0
0
0
0
0
0
0
0
0
0
0
0
0
0
0
0
0
0
0
0
0
0
0
0
0
0
0
0
0
0
0
0
0
0
0
0
0
0
0
0
0
0
0
0
0
0
0
0
0
0
0
0
0
0
0
0
0
0
0
0
0
0
0
0
0
0
0
0
0
0
0
0
0
0
0
0
0
0
0
0
0
0
0
0
0
0
0
0
0
0
0
0
0
0
0
0
0
0
0
0
0
0
0
0
0
0
0
0
0
0
0
0
0
0
0
0
0
0
0
0
0
0
0
0
0
0
0
0
0
0
0
0
0
0
0
0
0
0
0
0
0
0
0
0
0
0
0
0
0
0
0
0
0
0
0
0
0
0
0
0
0
0
0
0
0
0
0
0
0
0
0
0
0
0
0
0
0
0
0
0
0
0
0
0
0
0
0
0
0
0
0
0
0
0
0
0
0
0
0
0
0
0
0
0
0
0
0
0
0
0
0
0
0
0
0
0
0
0
0
-1.17662e-62
1.32669e-49
-3.49685e-43
4.68843e-40
2.50377e-39
-1.80227e-37
-4.54102e-36
-5.99615e-35
-5.58444e-34
-4.06465e-33
-2.40993e-32
-1.17302e-31
-4.59059e-31
-1.33806e-30
-2.01244e-30
6.36761e-30
6.99035e-29
3.67034e-28
1.47055e-27
4.98357e-27
1.4963e-26
4.10437e-26
1.05611e-25
2.61488e-25
6.37322e-25
1.55233e-24
3.791e-24
9.21313e-24
2.2001e-23
5.1001e-23
1.13758e-22
2.42883e-22
4.95249e-22
9.64015e-22
1.79269e-21
3.18926e-21
5.43685e-21
8.89587e-21
1.39904e-20
2.11714e-20
3.08488e-20
4.32916e-20
5.85024e-20
7.60899e-20
9.51863e-20
1.14479e-19
1.32433e-19
1.47758e-19
1.60258e-19
1.72451e-19
1.92946e-19
2.42853e-19
3.66573e-19
6.45998e-19
1.21473e-18
2.26394e-18
4.05968e-18
6.9543e-18
1.15473e-17
1.86786e-17
3.06099e-17
5.04923e-17
8.31525e-17
1.27662e-16
1.85793e-16
2.4117e-16
3.34136e-16
5.56702e-16
4.23583e-16
1.57677e-15
-3.86825e-16
3.94065e-15
-4.46808e-15
1.23948e-14
-3.65548e-15
2.52824e-14
-2.33051e-14
4.62016e-14
-4.70428e-14
1.40467e-13
-9.32175e-14
2.641e-13
-1.519e-13
8.81159e-13
7.1247e-14
2.50898e-12
6.34827e-15
4.64468e-12
-3.44923e-13
1.15986e-11
5.64552e-14
2.79195e-11
-6.67223e-12
3.81644e-11
-4.36622e-11
1.18192e-10
-1.05036e-11
2.96298e-10
-1.73013e-10
4.71378e-10
-3.60832e-10
1.97947e-09
1.15007e-09
7.61811e-09
5.25113e-09
1.90926e-08
1.60833e-08
4.6252e-08
4.92058e-08
1.15285e-07
1.23519e-07
2.23951e-07
2.43326e-07
3.6844e-07
3.92898e-07
7.2595e-07
9.96451e-07
2.47813e-06
2.54187e-06
1.07864e-06
-3.82749e-06
-2.84018e-06
1.42198e-05
7.40521e-05
0.000227807
0.000563286
0.00121949
0.00240175
0.00439519
0.00757359
0.0124007
0.019421
0.0292389
0.0424851
0.059772
0.0816423
0.108515
0.140634
0.178031
0.220493
0.267565
0.318558
0.372583
0.428605
0.485504
0.542138
0.597414
0.650344
0.700093
0.746007
0.787636
0.824727
0.857214
0.885194
0.908899
0.928657
0.944865
0.957952
0.968356
0.9765
0.982779
0.987547
0.991115
0.993744
0.995654
0.997022
0.997986
0.998656
0.999116
0.999426
0.999633
0.999768
0.999856
0.999911
0.999946
0.999968
0.999981
0.999989
0.999994
0.999997
0.999998
0.999999
0.999999
1
1
1
1
1
1
1
1
1
1
1
1
1
1
1
1
1
1
1
1
1
1
1
1
1
1
1
1
1
1
1
1
1
0.999999
0.999998
0.999998
1
1.00001
1.00001
0.999993
0.999936
0.999786
0.999455
0.998804
0.997627
0.995637
0.99246
0.98763
0.980603
0.970772
0.957508
0.940196
0.918297
0.891391
0.859238
0.82181
0.779321
0.732229
0.681227
0.627203
0.571193
0.514318
0.457717
0.40248
0.349593
0.299889
0.254017
0.212427
0.175369
0.142907
0.114944
0.0912495
0.0714937
0.0552825
0.0421874
0.0317721
0.0236143
0.0173207
0.0125375
0.00895587
0.00631319
0.00439162
0.00301456
0.00204187
0.00136464
0.000899852
0.000585399
0.000375686
0.000237817
0.000148474
9.14084e-05
5.54841e-05
3.31978e-05
1.95749e-05
1.13714e-05
6.50583e-06
3.66428e-06
2.03077e-06
1.1068e-06
5.92801e-07
3.11755e-07
1.60816e-07
8.12633e-08
4.01605e-08
1.93699e-08
9.09225e-09
4.138e-09
1.81623e-09
7.62876e-10
3.0248e-10
1.11577e-10
3.52116e-11
1.00395e-11
1.66643e-14
1.31519e-14
1.13111e-14
9.0089e-15
6.90535e-15
5.19654e-15
3.87747e-15
2.88172e-15
2.13712e-15
1.58246e-15
1.17004e-15
8.63737e-16
6.36541e-16
4.68283e-16
3.43903e-16
2.52143e-16
1.8459e-16
1.3496e-16
9.85668e-17
7.1925e-17
5.24497e-17
3.82294e-17
2.7855e-17
2.0291e-17
1.47782e-17
1.07612e-17
7.83428e-18
5.70177e-18
4.14805e-18
3.0161e-18
2.19155e-18
1.59107e-18
1.15396e-18
8.35967e-19
6.048e-19
4.36915e-19
3.15125e-19
2.26892e-19
1.63062e-19
1.16961e-19
8.37235e-20
5.9805e-20
4.26268e-20
3.03152e-20
2.15104e-20
1.52276e-20
1.07546e-20
7.57746e-21
5.32616e-21
3.73472e-21
2.61245e-21
1.82298e-21
1.26898e-21
8.81182e-22
6.10399e-22
4.21793e-22
2.90751e-22
1.99932e-22
1.37146e-22
9.3848e-23
6.40635e-23
4.36257e-23
2.96363e-23
2.00843e-23
1.35783e-23
9.15784e-24
6.16174e-24
4.13601e-24
2.76968e-24
1.85035e-24
1.23327e-24
8.20064e-25
5.44034e-25
3.6008e-25
2.37777e-25
1.56656e-25
1.02975e-25
6.75355e-26
4.41929e-26
2.88535e-26
1.87964e-26
1.22176e-26
7.92396e-27
5.12796e-27
3.3113e-27
2.1336e-27
1.3718e-27
8.80109e-28
5.63454e-28
3.59965e-28
2.29482e-28
1.45992e-28
9.26845e-29
5.87202e-29
3.71258e-29
2.34249e-29
1.47502e-29
9.26923e-30
5.81324e-30
3.63855e-30
2.27289e-30
1.41701e-30
8.81696e-31
5.47545e-31
3.39377e-31
2.09947e-31
1.29631e-31
7.98883e-32
4.91404e-32
3.01703e-32
1.84889e-32
1.13093e-32
6.90499e-33
4.20818e-33
2.55997e-33
1.55449e-33
9.4224e-34
5.70108e-34
3.44335e-34
2.07605e-34
1.24948e-34
7.50693e-35
4.50237e-35
2.69569e-35
1.61121e-35
9.61373e-36
5.72657e-36
3.40537e-36
2.02164e-36
1.19817e-36
7.08945e-37
4.18783e-37
2.46975e-37
1.45414e-37
8.54785e-38
5.01655e-38
2.93938e-38
1.71955e-38
1.00434e-38
5.85684e-39
3.41007e-39
1.98237e-39
1.15062e-39
6.66818e-40
3.85848e-40
2.22926e-40
1.28601e-40
7.40753e-41
4.26038e-41
2.44666e-41
1.40299e-41
8.03323e-42
4.59291e-42
2.6221e-42
1.49478e-42
8.509e-43
4.83675e-43
2.7454e-43
1.5561e-43
8.80755e-44
4.97805e-44
2.80966e-44
1.58359e-44
8.91308e-45
5.00971e-45
2.81191e-45
1.57614e-45
8.82266e-46
4.93191e-46
2.75325e-46
1.53496e-46
8.54607e-47
4.75184e-47
2.63866e-47
1.46331e-47
8.10439e-48
4.48272e-48
2.47628e-48
1.36616e-48
7.52742e-49
4.14227e-49
2.27657e-49
1.24961e-49
6.85054e-50
3.75087e-50
2.05117e-50
1.1203e-50
6.11126e-51
3.32964e-51
1.8119e-51
9.84796e-52
5.34606e-52
2.89868e-52
1.56982e-52
8.49144e-53
4.58776e-53
2.47576e-53
1.33447e-53
7.18457e-54
3.86358e-54
2.07529e-54
1.11344e-54
5.96707e-55
3.19419e-55
1.70792e-55
9.1219e-56
4.86649e-56
2.59335e-56
1.38047e-56
7.34021e-57
3.89865e-57
2.06844e-57
1.09622e-57
5.80342e-58
3.06902e-58
1.62125e-58
8.55525e-59
4.50977e-59
2.37473e-59
1.24916e-59
6.56392e-60
3.44553e-60
1.80674e-60
9.46424e-61
4.95253e-61
2.58895e-61
1.352e-61
7.05319e-62
3.67584e-62
1.91376e-62
9.95371e-63
5.17187e-63
2.68459e-63
1.39212e-63
7.21191e-64
3.73247e-64
1.92982e-64
9.96818e-65
5.14392e-65
2.65188e-65
1.36583e-65
7.02785e-66
3.61274e-66
1.85541e-66
9.51988e-67
4.87996e-67
2.49917e-67
1.2787e-67
6.53643e-68
3.33819e-68
1.70327e-68
8.68274e-69
4.42217e-69
2.25019e-69
1.14396e-69
5.81049e-70
2.94866e-70
1.49503e-70
7.57336e-71
3.83304e-71
1.93828e-71
9.79281e-72
4.94333e-72
2.49318e-72
1.25636e-72
6.32553e-73
3.18206e-73
1.59937e-73
8.03189e-74
4.03013e-74
2.02048e-74
1.0121e-74
5.06558e-75
2.53322e-75
1.26577e-75
6.31943e-76
3.15241e-76
1.57127e-76
7.82539e-77
3.8941e-77
1.93622e-77
9.61951e-78
4.77531e-78
2.36866e-78
1.17397e-78
5.81388e-79
2.87694e-79
1.42251e-79
7.02809e-80
3.46961e-80
1.71153e-80
8.43632e-81
4.15514e-81
2.04495e-81
1.00565e-81
4.94177e-82
2.42653e-82
1.19059e-82
5.83724e-83
)
;

boundaryField
{
    sides
    {
        type            inletOutlet;
        inletValue      uniform 0;
        value           nonuniform List<scalar> 2(5.83724e-83 0);
    }
    empty
    {
        type            empty;
    }
}


// ************************************************************************* //
