-4.995 	348.432 	2.74241e-12 	100000
-4.985 	348.432 	3.06334e-12 	100000
-4.975 	348.432 	1.61919e-12 	100000
-4.965 	348.432 	2.18809e-13 	100000
-4.955 	348.432 	1.07217e-12 	100000
-4.945 	348.432 	3.71976e-13 	100000
-4.935 	348.432 	2.31938e-12 	100000
-4.925 	348.432 	5.50671e-12 	100000
-4.915 	348.432 	7.1186e-12 	100000
-4.905 	348.432 	6.61534e-12 	100000
-4.895 	348.432 	5.43377e-12 	100000
-4.885 	348.432 	5.32437e-12 	100000
-4.875 	348.432 	5.71822e-12 	100000
-4.865 	348.432 	5.09096e-12 	100000
-4.855 	348.432 	2.97581e-12 	100000
-4.845 	348.432 	9.40881e-13 	100000
-4.835 	348.432 	2.33397e-13 	100000
-4.825 	348.432 	1.4952e-12 	100000
-4.815 	348.432 	1.7213e-12 	100000
-4.805 	348.432 	5.76198e-13 	100000
-4.795 	348.432 	1.44414e-12 	100000
-4.785 	348.432 	1.77965e-12 	100000
-4.775 	348.432 	5.83492e-13 	100000
-4.765 	348.432 	5.90785e-13 	100000
-4.755 	348.432 	1.28368e-12 	100000
-4.745 	348.432 	1.58272e-12 	100000
-4.735 	348.432 	1.91093e-12 	100000
-4.725 	348.432 	1.60461e-13 	100000
-4.715 	348.432 	2.6403e-12 	100000
-4.705 	348.432 	5.2733e-12 	100000
-4.695 	348.432 	6.81227e-12 	100000
-4.685 	348.432 	6.70287e-12 	100000
-4.675 	348.432 	4.53665e-12 	100000
-4.665 	348.432 	2.71324e-12 	100000
-4.655 	348.432 	1.88176e-12 	100000
-4.645 	348.432 	9.7735e-13 	100000
-4.635 	348.432 	2.99039e-13 	100000
-4.625 	348.432 	5.83492e-14 	100000
-4.615 	348.432 	9.48176e-14 	100000
-4.605 	348.432 	1.34932e-12 	100000
-4.595 	348.432 	4.26678e-12 	100000
-4.585 	348.432 	6.98003e-12 	100000
-4.575 	348.432 	7.76773e-12 	100000
-4.565 	348.432 	6.51323e-12 	100000
-4.555 	348.432 	3.98963e-12 	100000
-4.545 	348.432 	2.60383e-12 	100000
-4.535 	348.432 	2.93205e-12 	100000
-4.525 	348.432 	4.32514e-12 	100000
-4.515 	348.432 	5.57235e-12 	100000
-4.505 	348.432 	5.65988e-12 	100000
-4.495 	348.432 	4.66064e-12 	100000
-4.485 	348.432 	3.82917e-12 	100000
-4.475 	348.432 	3.0925e-12 	100000
-4.465 	348.432 	2.37773e-12 	100000
-4.455 	348.432 	1.99846e-12 	100000
-4.445 	348.432 	2.43608e-12 	100000
-4.435 	348.432 	3.23838e-12 	100000
-4.425 	348.432 	3.25297e-12 	100000
-4.415 	348.432 	2.04951e-12 	100000
-4.405 	348.432 	2.08598e-12 	100000
-4.395 	348.432 	3.37696e-12 	100000
-4.385 	348.432 	4.60959e-12 	100000
-4.375 	348.432 	6.09749e-12 	100000
-4.365 	348.432 	6.95085e-12 	100000
-4.355 	348.432 	6.68098e-12 	100000
-4.345 	348.432 	7.43952e-12 	100000
-4.335 	348.432 	8.43876e-12 	100000
-4.325 	348.432 	8.76697e-12 	100000
-4.315 	348.432 	6.68827e-12 	100000
-4.305 	348.432 	4.80652e-12 	100000
-4.295 	348.432 	3.69059e-12 	100000
-4.285 	348.432 	3.95316e-12 	100000
-4.275 	348.432 	3.6833e-12 	100000
-4.265 	348.432 	3.36237e-12 	100000
-4.255 	348.432 	4.28138e-12 	100000
-4.245 	348.432 	5.38271e-12 	100000
-4.235 	348.432 	6.59346e-12 	100000
-4.225 	348.432 	6.06103e-12 	100000
-4.215 	348.432 	5.33895e-12 	100000
-4.205 	348.432 	5.39001e-12 	100000
-4.195 	348.432 	5.65988e-12 	100000
-4.185 	348.432 	4.7117e-12 	100000
-4.175 	348.432 	3.96045e-12 	100000
-4.165 	348.432 	2.91016e-12 	100000
-4.155 	348.432 	2.80806e-12 	100000
-4.145 	348.432 	2.8664e-12 	100000
-4.135 	348.432 	3.87293e-12 	100000
-4.125 	348.432 	6.27254e-12 	100000
-4.115 	348.432 	7.5854e-12 	100000
-4.105 	348.432 	7.56351e-12 	100000
-4.095 	348.432 	7.96467e-12 	100000
-4.085 	348.432 	8.19807e-12 	100000
-4.075 	348.432 	8.46793e-12 	100000
-4.065 	348.432 	8.23453e-12 	100000
-4.055 	348.432 	8.75238e-12 	100000
-4.045 	348.432 	1.06998e-11 	100000
-4.035 	348.432 	1.02184e-11 	100000
-4.025 	348.432 	8.94201e-12 	100000
-4.015 	348.432 	7.70939e-12 	100000
-4.005 	348.432 	7.52705e-12 	100000
-3.995 	348.432 	6.41112e-12 	100000
-3.985 	348.432 	5.65258e-12 	100000
-3.975 	348.432 	5.06908e-12 	100000
-3.965 	348.432 	4.98156e-12 	100000
-3.955 	348.432 	5.1712e-12 	100000
-3.945 	348.432 	5.1712e-12 	100000
-3.935 	348.432 	4.15738e-12 	100000
-3.925 	348.432 	3.47177e-12 	100000
-3.915 	348.432 	2.6403e-12 	100000
-3.905 	348.432 	4.42724e-12 	100000
-3.895 	348.432 	6.10479e-12 	100000
-3.885 	348.432 	7.27906e-12 	100000
-3.875 	348.432 	7.82609e-12 	100000
-3.865 	348.432 	8.21265e-12 	100000
-3.855 	348.432 	7.19154e-12 	100000
-3.845 	348.432 	6.14125e-12 	100000
-3.835 	348.432 	5.20766e-12 	100000
-3.825 	348.432 	6.4257e-12 	100000
-3.815 	348.432 	7.94278e-12 	100000
-3.805 	348.432 	9.26293e-12 	100000
-3.795 	348.432 	1.04226e-11 	100000
-3.785 	348.432 	8.60651e-12 	100000
-3.775 	348.432 	7.14778e-12 	100000
-3.765 	348.432 	7.31553e-12 	100000
-3.755 	348.432 	9.43069e-12 	100000
-3.745 	348.432 	1.07946e-11 	100000
-3.735 	348.432 	1.08894e-11 	100000
-3.725 	348.432 	8.68674e-12 	100000
-3.715 	348.432 	7.2353e-12 	100000
-3.705 	348.432 	8.54816e-12 	100000
-3.695 	348.432 	1.09113e-11 	100000
-3.685 	348.432 	1.16188e-11 	100000
-3.675 	348.432 	9.27753e-12 	100000
-3.665 	348.432 	7.56352e-12 	100000
-3.655 	348.432 	6.61535e-12 	100000
-3.645 	348.432 	6.52782e-12 	100000
-3.635 	348.432 	5.8641e-12 	100000
-3.625 	348.432 	5.41918e-12 	100000
-3.615 	348.432 	4.58041e-12 	100000
-3.605 	348.432 	4.34701e-12 	100000
-3.595 	348.432 	6.35277e-12 	100000
-3.585 	348.432 	8.02301e-12 	100000
-3.575 	348.432 	9.09518e-12 	100000
-3.565 	348.432 	9.48903e-12 	100000
-3.555 	348.432 	9.72973e-12 	100000
-3.545 	348.432 	9.88291e-12 	100000
-3.535 	348.432 	1.00798e-11 	100000
-3.525 	348.432 	9.5401e-12 	100000
-3.515 	348.432 	1.05321e-11 	100000
-3.505 	348.432 	1.04153e-11 	100000
-3.495 	348.432 	8.7305e-12 	100000
-3.485 	348.432 	6.98003e-12 	100000
-3.475 	348.432 	6.38924e-12 	100000
-3.465 	348.432 	6.19231e-12 	100000
-3.455 	348.432 	6.30901e-12 	100000
-3.445 	348.432 	6.45489e-12 	100000
-3.435 	348.432 	6.40383e-12 	100000
-3.425 	348.432 	5.4046e-12 	100000
-3.415 	348.432 	5.70364e-12 	100000
-3.405 	348.432 	5.03262e-12 	100000
-3.395 	348.432 	4.69711e-12 	100000
-3.385 	348.432 	3.94587e-12 	100000
-3.375 	348.432 	3.95316e-12 	100000
-3.365 	348.432 	5.42647e-12 	100000
-3.355 	348.432 	5.26602e-12 	100000
-3.345 	348.432 	4.41995e-12 	100000
-3.335 	348.432 	5.06909e-12 	100000
-3.325 	348.432 	6.33818e-12 	100000
-3.315 	348.432 	7.39576e-12 	100000
-3.305 	348.432 	7.86255e-12 	100000
-3.295 	348.432 	7.07484e-12 	100000
-3.285 	348.432 	6.14125e-12 	100000
-3.275 	348.432 	4.09903e-12 	100000
-3.265 	348.432 	3.14357e-12 	100000
-3.255 	348.432 	2.88829e-12 	100000
-3.245 	348.432 	4.52936e-12 	100000
-3.235 	348.432 	5.64529e-12 	100000
-3.225 	348.432 	5.47753e-12 	100000
-3.215 	348.432 	5.50671e-12 	100000
-3.205 	348.432 	6.52052e-12 	100000
-3.195 	348.432 	5.07638e-12 	100000
-3.185 	348.432 	4.63876e-12 	100000
-3.175 	348.432 	4.40536e-12 	100000
-3.165 	348.432 	4.50748e-12 	100000
-3.155 	348.432 	4.4783e-12 	100000
-3.145 	348.432 	4.18656e-12 	100000
-3.135 	348.432 	4.50747e-12 	100000
-3.125 	348.432 	5.0545e-12 	100000
-3.115 	348.432 	4.85757e-12 	100000
-3.105 	348.432 	5.11285e-12 	100000
-3.095 	348.432 	6.39654e-12 	100000
-3.085 	348.432 	7.21342e-12 	100000
-3.075 	348.432 	6.62263e-12 	100000
-3.065 	348.432 	5.50671e-12 	100000
-3.055 	348.432 	5.44106e-12 	100000
-3.045 	348.432 	6.4257e-12 	100000
-3.035 	348.432 	7.31553e-12 	100000
-3.025 	348.432 	8.79614e-12 	100000
-3.015 	348.432 	7.29365e-12 	100000
-3.005 	348.432 	6.00267e-12 	100000
-2.995 	348.432 	3.99692e-12 	100000
-2.985 	348.432 	2.66219e-12 	100000
-2.975 	348.432 	3.11439e-12 	100000
-2.965 	348.432 	3.77082e-12 	100000
-2.955 	348.432 	3.53742e-12 	100000
-2.945 	348.432 	4.65335e-12 	100000
-2.935 	348.432 	5.82763e-12 	100000
-2.925 	348.432 	6.27254e-12 	100000
-2.915 	348.432 	6.33089e-12 	100000
-2.905 	348.432 	6.36735e-12 	100000
-2.895 	348.432 	5.55776e-12 	100000
-2.885 	348.432 	3.81458e-12 	100000
-2.875 	348.432 	2.8737e-12 	100000
-2.865 	348.432 	3.36237e-12 	100000
-2.855 	348.432 	3.60306e-12 	100000
-2.845 	348.432 	1.8307e-12 	100000
-2.835 	348.432 	2.47984e-13 	100000
-2.825 	348.432 	7.0019e-13 	100000
-2.815 	348.432 	1.7213e-12 	100000
-2.805 	348.432 	2.99039e-12 	100000
-2.795 	348.432 	4.87215e-12 	100000
-2.785 	348.432 	6.16313e-12 	100000
-2.775 	348.432 	6.11937e-12 	100000
-2.765 	348.432 	5.07638e-12 	100000
-2.755 	348.432 	4.471e-12 	100000
-2.745 	348.432 	3.24568e-12 	100000
-2.735 	348.432 	2.13704e-12 	100000
-2.725 	348.432 	2.04222e-12 	100000
-2.715 	348.432 	2.21727e-12 	100000
-2.705 	348.432 	2.55278e-12 	100000
-2.695 	348.432 	3.59577e-12 	100000
-2.685 	348.432 	3.06333e-12 	100000
-2.675 	348.432 	3.63224e-12 	100000
-2.665 	348.432 	5.20038e-12 	100000
-2.655 	348.432 	6.56428e-12 	100000
-2.645 	348.432 	6.5424e-12 	100000
-2.635 	348.432 	5.22954e-12 	100000
-2.625 	348.432 	4.2522e-12 	100000
-2.615 	348.432 	3.83646e-12 	100000
-2.605 	348.432 	2.757e-12 	100000
-2.595 	348.432 	2.26832e-12 	100000
-2.585 	348.432 	2.42878e-12 	100000
-2.575 	348.432 	2.12975e-12 	100000
-2.565 	348.432 	2.6403e-12 	100000
-2.555 	348.432 	2.50901e-12 	100000
-2.545 	348.432 	1.44414e-12 	100000
-2.535 	348.432 	7.07484e-13 	100000
-2.525 	348.432 	8.75236e-13 	100000
-2.515 	348.432 	1.23992e-13 	100000
-2.505 	348.432 	8.02301e-13 	100000
-2.495 	348.432 	8.31476e-13 	100000
-2.485 	348.432 	5.1785e-13 	100000
-2.475 	348.432 	1.82341e-13 	100000
-2.465 	348.432 	1.53167e-13 	100000
-2.455 	348.432 	2.47984e-13 	100000
-2.445 	348.432 	1.18887e-12 	100000
-2.435 	348.432 	8.89828e-13 	100000
-2.425 	348.432 	1.19616e-12 	100000
-2.415 	348.432 	1.23262e-12 	100000
-2.405 	348.432 	1.25451e-12 	100000
-2.395 	348.432 	7.14777e-13 	100000
-2.385 	348.432 	1.06487e-12 	100000
-2.375 	348.432 	1.53167e-12 	100000
-2.365 	348.432 	1.71401e-12 	100000
-2.355 	348.432 	1.20346e-12 	100000
-2.345 	348.432 	3.13627e-13 	100000
-2.335 	348.432 	2.58924e-12 	100000
-2.325 	348.432 	4.2449e-12 	100000
-2.315 	348.432 	4.42724e-12 	100000
-2.305 	348.432 	3.96045e-12 	100000
-2.295 	348.432 	2.82994e-12 	100000
-2.285 	348.432 	1.40038e-12 	100000
-2.275 	348.432 	8.24183e-13 	100000
-2.265 	348.432 	2.77159e-13 	100000
-2.255 	348.432 	5.90785e-13 	100000
-2.245 	348.432 	1.10863e-12 	100000
-2.235 	348.432 	1.51708e-12 	100000
-2.225 	348.432 	1.87447e-12 	100000
-2.215 	348.432 	3.23838e-12 	100000
-2.205 	348.432 	3.9094e-12 	100000
-2.195 	348.432 	2.20998e-12 	100000
-2.185 	348.432 	1.10864e-12 	100000
-2.175 	348.432 	2.1881e-13 	100000
-2.165 	348.432 	4.15738e-13 	100000
-2.155 	348.432 	1.45873e-13 	100000
-2.145 	348.432 	7.65834e-13 	100000
-2.135 	348.432 	1.45873e-13 	100000
-2.125 	348.432 	1.29098e-12 	100000
-2.115 	348.432 	2.35585e-12 	100000
-2.105 	348.432 	3.61036e-12 	100000
-2.095 	348.432 	5.32437e-12 	100000
-2.085 	348.432 	8.02301e-12 	100000
-2.075 	348.432 	2.43534e-11 	100000
-2.065 	348.432 	1.91808e-10 	100000
-2.055 	348.432 	1.70244e-09 	100000
-2.045 	348.432 	1.39491e-08 	100000
-2.035 	348.432 	1.0354e-07 	100000
-2.025 	348.432 	6.93788e-07 	100000
-2.015 	348.432 	4.18777e-06 	100000
-2.005 	348.432 	2.27249e-05 	100000
-1.995 	348.432 	0.000110634 	100000
-1.985 	348.432 	0.000482197 	99999.8
-1.975 	348.431 	0.00187744 	99999.3
-1.965 	348.429 	0.00651611 	99997.6
-1.955 	348.425 	0.0201213 	99992.5
-1.945 	348.411 	0.0552086 	99979.4
-1.935 	348.382 	0.134601 	99949.7
-1.925 	348.323 	0.29227 	99890.9
-1.915 	348.221 	0.568317 	99787.8
-1.905 	348.06 	0.998463 	99627.4
-1.895 	347.834 	1.60355 	99402.1
-1.885 	347.543 	2.38529 	99111.7
-1.875 	347.192 	3.32945 	98762
-1.865 	346.789 	4.4129 	98361.9
-1.855 	346.343 	5.61026 	97921.4
-1.845 	345.865 	6.89812 	97449.5
-1.835 	345.36 	8.25679 	96953.8
-1.825 	344.836 	9.67067 	96440.2
-1.815 	344.296 	11.1277 	95913.4
-1.805 	343.743 	12.6187 	95376.9
-1.795 	343.181 	14.1368 	94833.3
-1.785 	342.612 	15.6766 	94284.6
-1.775 	342.036 	17.2341 	93732.4
-1.765 	341.456 	18.8061 	93177.9
-1.755 	340.872 	20.3901 	92622
-1.745 	340.284 	21.9842 	92065.5
-1.735 	339.694 	23.5867 	91508.8
-1.725 	339.102 	25.1962 	90952.7
-1.715 	338.508 	26.8118 	90397.4
-1.705 	337.912 	28.4326 	89843.1
-1.695 	337.316 	30.0578 	89290.3
-1.685 	336.719 	31.6869 	88739.1
-1.675 	336.121 	33.3194 	88189.7
-1.665 	335.522 	34.9547 	87642.3
-1.655 	334.923 	36.5927 	87096.9
-1.645 	334.324 	38.233 	86553.6
-1.635 	333.724 	39.8754 	86012.6
-1.625 	333.125 	41.5195 	85473.8
-1.615 	332.525 	43.1654 	84937.5
-1.605 	331.925 	44.8127 	84403.5
-1.595 	331.326 	46.4613 	83872
-1.585 	330.726 	48.1111 	83343
-1.575 	330.127 	49.762 	82816.5
-1.565 	329.527 	51.414 	82292.5
-1.555 	328.928 	53.0668 	81771.1
-1.545 	328.33 	54.7205 	81252.2
-1.535 	327.731 	56.3749 	80736
-1.525 	327.133 	58.0301 	80222.3
-1.515 	326.535 	59.6859 	79711.2
-1.505 	325.938 	61.3422 	79202.8
-1.495 	325.34 	62.9992 	78697
-1.485 	324.744 	64.6567 	78193.7
-1.475 	324.147 	66.3146 	77693.1
-1.465 	323.551 	67.973 	77195.1
-1.455 	322.955 	69.6318 	76699.7
-1.445 	322.36 	71.291 	76207
-1.435 	321.765 	72.9506 	75716.8
-1.425 	321.171 	74.6105 	75229.2
-1.415 	320.577 	76.2707 	74744.3
-1.405 	319.983 	77.9311 	74261.9
-1.395 	319.39 	79.5919 	73782.2
-1.385 	318.798 	81.2529 	73305
-1.375 	318.206 	82.9142 	72830.4
-1.365 	317.614 	84.5757 	72358.3
-1.355 	317.023 	86.2374 	71888.8
-1.345 	316.432 	87.8993 	71421.9
-1.335 	315.842 	89.5614 	70957.6
-1.325 	315.252 	91.2237 	70495.8
-1.315 	314.663 	92.8861 	70036.4
-1.305 	314.074 	94.5487 	69579.7
-1.295 	313.485 	96.2114 	69125.5
-1.285 	312.898 	97.8743 	68673.7
-1.275 	312.31 	99.5372 	68224.4
-1.265 	311.723 	101.2 	67777.7
-1.255 	311.137 	102.863 	67333.4
-1.245 	310.551 	104.527 	66891.6
-1.235 	309.966 	106.19 	66452.2
-1.225 	309.381 	107.854 	66015.3
-1.215 	308.797 	109.517 	65580.9
-1.205 	308.213 	111.181 	65148.8
-1.195 	307.63 	112.845 	64719.2
-1.185 	307.048 	114.509 	64292
-1.175 	306.465 	116.173 	63867.2
-1.165 	305.884 	117.837 	63444.8
-1.155 	305.303 	119.501 	63024.8
-1.145 	304.722 	121.165 	62607.2
-1.135 	304.142 	122.829 	62191.8
-1.125 	303.563 	124.493 	61778.9
-1.115 	302.984 	126.157 	61368.3
-1.105 	302.406 	127.821 	60960.1
-1.095 	301.828 	129.486 	60554.2
-1.085 	301.251 	131.15 	60150.5
-1.075 	300.674 	132.814 	59749.2
-1.065 	300.098 	134.479 	59350.1
-1.055 	299.522 	136.143 	58953.4
-1.045 	298.947 	137.807 	58558.9
-1.035 	298.373 	139.472 	58166.7
-1.025 	297.799 	141.136 	57776.7
-1.015 	297.225 	142.8 	57389
-1.005 	296.652 	144.465 	57003.5
-0.995 	296.08 	146.129 	56620.2
-0.985 	295.508 	147.794 	56239.1
-0.975 	294.937 	149.458 	55860.3
-0.965 	294.366 	151.122 	55483.6
-0.955 	293.796 	152.787 	55109.2
-0.945 	293.227 	154.451 	54736.9
-0.935 	292.658 	156.115 	54366.7
-0.925 	292.089 	157.78 	53998.7
-0.915 	291.521 	159.444 	53632.8
-0.905 	290.954 	161.108 	53269.1
-0.895 	290.387 	162.772 	52907.5
-0.885 	289.821 	164.437 	52548
-0.875 	289.255 	166.101 	52190.6
-0.865 	288.69 	167.765 	51835.3
-0.855 	288.125 	169.429 	51482.1
-0.845 	287.562 	171.093 	51131
-0.835 	286.999 	172.757 	50781.9
-0.825 	286.436 	174.42 	50434.9
-0.815 	285.873 	176.084 	50089.9
-0.805 	285.312 	177.748 	49747
-0.795 	284.751 	179.412 	49406.1
-0.785 	284.19 	181.075 	49067.2
-0.775 	283.63 	182.739 	48730.3
-0.765 	283.071 	184.402 	48395.5
-0.755 	282.512 	186.066 	48062.6
-0.745 	281.954 	187.729 	47731.7
-0.735 	281.397 	189.392 	47402.8
-0.725 	280.84 	191.055 	47075.8
-0.715 	280.283 	192.718 	46750.8
-0.705 	279.727 	194.381 	46427.7
-0.695 	279.172 	196.043 	46106.6
-0.685 	278.618 	197.706 	45787.4
-0.675 	278.064 	199.368 	45470.2
-0.665 	277.51 	201.031 	45154.8
-0.655 	276.958 	202.693 	44841.4
-0.645 	276.405 	204.355 	44529.8
-0.635 	275.854 	206.017 	44220.2
-0.625 	275.303 	207.678 	43912.4
-0.615 	274.753 	209.34 	43606.5
-0.605 	274.203 	211.001 	43302.5
-0.595 	273.654 	212.662 	43000.3
-0.585 	273.105 	214.322 	42700
-0.575 	272.557 	215.983 	42401.5
-0.565 	272.01 	217.643 	42104.8
-0.555 	271.463 	219.303 	41810
-0.545 	270.917 	220.962 	41517
-0.535 	270.372 	222.622 	41225.9
-0.525 	269.827 	224.28 	40936.5
-0.515 	269.284 	225.939 	40649
-0.505 	268.74 	227.597 	40363.3
-0.495 	268.198 	229.254 	40079.3
-0.485 	267.656 	230.911 	39797.2
-0.475 	267.115 	232.568 	39516.8
-0.465 	266.574 	234.224 	39238.2
-0.455 	266.035 	235.879 	38961.5
-0.445 	265.496 	237.534 	38686.5
-0.435 	264.958 	239.188 	38413.3
-0.425 	264.421 	240.841 	38141.9
-0.415 	263.884 	242.493 	37872.3
-0.405 	263.349 	244.144 	37604.5
-0.395 	262.814 	245.794 	37338.5
-0.385 	262.281 	247.443 	37074.2
-0.375 	261.748 	249.091 	36811.8
-0.365 	261.216 	250.737 	36551.2
-0.355 	260.686 	252.382 	36292.5
-0.345 	260.156 	254.025 	36035.6
-0.335 	259.628 	255.665 	35780.6
-0.325 	259.101 	257.303 	35527.5
-0.315 	258.575 	258.939 	35276.4
-0.305 	258.051 	260.571 	35027.2
-0.295 	257.528 	262.2 	34780.1
-0.285 	257.008 	263.825 	34535.1
-0.275 	256.489 	265.446 	34292.2
-0.265 	255.973 	267.061 	34051.6
-0.255 	255.459 	268.67 	33813.4
-0.245 	254.948 	270.271 	33577.6
-0.235 	254.44 	271.864 	33344.6
-0.225 	253.936 	273.447 	33114.4
-0.215 	253.437 	275.017 	32887.4
-0.205 	252.943 	276.572 	32663.8
-0.195 	252.455 	278.109 	32444.1
-0.185 	251.974 	279.624 	32228.8
-0.175 	251.503 	281.112 	32018.5
-0.165 	251.043 	282.566 	31814.2
-0.155 	250.596 	283.978 	31616.7
-0.145 	250.167 	285.339 	31427.4
-0.135 	249.758 	286.636 	31247.9
-0.125 	249.375 	287.852 	31080.2
-0.115 	249.023 	288.973 	30926.4
-0.105 	248.707 	289.979 	30789
-0.095 	248.434 	290.85 	30670.2
-0.085 	248.207 	291.573 	30571.8
-0.075 	248.031 	292.141 	30494.7
-0.065 	247.901 	292.558 	30438.1
-0.055 	247.813 	292.841 	30399.7
-0.045 	247.759 	293.016 	30375.9
-0.035 	247.729 	293.114 	30362.5
-0.025 	247.714 	293.165 	30355.7
-0.015 	247.707 	293.188 	30352.6
-0.005 	247.704 	293.197 	30351.3
0.005 	247.703 	293.201 	30350.7
0.015 	247.702 	293.203 	30350.5
0.025 	247.702 	293.203 	30350.4
0.035 	247.702 	293.204 	30350.4
0.045 	247.703 	293.204 	30350.4
0.055 	247.703 	293.204 	30350.3
0.065 	247.703 	293.204 	30350.3
0.075 	247.703 	293.204 	30350.3
0.085 	247.703 	293.205 	30350.3
0.095 	247.703 	293.205 	30350.2
0.105 	247.704 	293.205 	30350.2
0.115 	247.704 	293.205 	30350.2
0.125 	247.704 	293.205 	30350.2
0.135 	247.704 	293.205 	30350.2
0.145 	247.704 	293.206 	30350.1
0.155 	247.704 	293.206 	30350.1
0.165 	247.705 	293.206 	30350.1
0.175 	247.705 	293.206 	30350.1
0.185 	247.705 	293.206 	30350.1
0.195 	247.705 	293.206 	30350.1
0.205 	247.706 	293.206 	30350.1
0.215 	247.706 	293.206 	30350.1
0.225 	247.706 	293.206 	30350
0.235 	247.706 	293.206 	30350
0.245 	247.707 	293.206 	30350
0.255 	247.707 	293.206 	30350
0.265 	247.707 	293.206 	30350
0.275 	247.707 	293.207 	30350
0.285 	247.708 	293.207 	30350
0.295 	247.708 	293.207 	30350
0.305 	247.708 	293.207 	30350
0.315 	247.708 	293.207 	30350
0.325 	247.709 	293.207 	30350
0.335 	247.709 	293.207 	30350
0.345 	247.709 	293.207 	30350
0.355 	247.71 	293.207 	30350
0.365 	247.71 	293.207 	30350
0.375 	247.71 	293.207 	30350
0.385 	247.711 	293.207 	30350
0.395 	247.711 	293.207 	30350
0.405 	247.711 	293.207 	30350
0.415 	247.712 	293.207 	30349.9
0.425 	247.712 	293.207 	30349.9
0.435 	247.712 	293.207 	30349.9
0.445 	247.713 	293.207 	30349.9
0.455 	247.713 	293.207 	30349.9
0.465 	247.714 	293.207 	30349.9
0.475 	247.714 	293.207 	30349.9
0.485 	247.714 	293.207 	30349.9
0.495 	247.715 	293.207 	30349.9
0.505 	247.715 	293.207 	30349.9
0.515 	247.716 	293.207 	30349.9
0.525 	247.716 	293.207 	30349.9
0.535 	247.717 	293.207 	30349.9
0.545 	247.717 	293.207 	30349.9
0.555 	247.718 	293.207 	30349.9
0.565 	247.718 	293.207 	30349.9
0.575 	247.719 	293.207 	30349.9
0.585 	247.719 	293.207 	30349.9
0.595 	247.72 	293.207 	30349.9
0.605 	247.72 	293.207 	30349.9
0.615 	247.721 	293.207 	30349.9
0.625 	247.721 	293.207 	30349.9
0.635 	247.722 	293.207 	30349.9
0.645 	247.722 	293.207 	30349.9
0.655 	247.723 	293.207 	30349.9
0.665 	247.724 	293.207 	30349.9
0.675 	247.724 	293.207 	30349.9
0.685 	247.725 	293.207 	30349.9
0.695 	247.726 	293.207 	30349.9
0.705 	247.726 	293.207 	30349.9
0.715 	247.727 	293.207 	30349.9
0.725 	247.728 	293.207 	30349.9
0.735 	247.728 	293.207 	30349.9
0.745 	247.729 	293.207 	30349.9
0.755 	247.73 	293.207 	30349.9
0.765 	247.731 	293.207 	30349.9
0.775 	247.732 	293.207 	30349.9
0.785 	247.732 	293.207 	30349.9
0.795 	247.733 	293.207 	30349.9
0.805 	247.734 	293.207 	30349.9
0.815 	247.735 	293.207 	30349.9
0.825 	247.736 	293.207 	30349.9
0.835 	247.737 	293.207 	30349.9
0.845 	247.738 	293.207 	30349.9
0.855 	247.739 	293.207 	30349.9
0.865 	247.74 	293.207 	30349.9
0.875 	247.741 	293.207 	30349.9
0.885 	247.743 	293.207 	30349.9
0.895 	247.744 	293.207 	30349.9
0.905 	247.745 	293.207 	30349.9
0.915 	247.746 	293.207 	30349.9
0.925 	247.748 	293.207 	30349.9
0.935 	247.749 	293.207 	30349.9
0.945 	247.75 	293.207 	30349.9
0.955 	247.752 	293.207 	30349.9
0.965 	247.754 	293.207 	30349.9
0.975 	247.755 	293.207 	30349.9
0.985 	247.757 	293.207 	30349.9
0.995 	247.759 	293.207 	30349.9
1.005 	247.76 	293.207 	30349.9
1.015 	247.762 	293.207 	30349.9
1.025 	247.764 	293.207 	30349.9
1.035 	247.766 	293.207 	30349.9
1.045 	247.769 	293.207 	30349.9
1.055 	247.771 	293.207 	30349.9
1.065 	247.773 	293.207 	30349.9
1.075 	247.776 	293.207 	30349.9
1.085 	247.778 	293.207 	30349.9
1.095 	247.781 	293.207 	30349.9
1.105 	247.784 	293.207 	30349.9
1.115 	247.787 	293.207 	30349.9
1.125 	247.79 	293.207 	30349.9
1.135 	247.794 	293.207 	30349.9
1.145 	247.798 	293.207 	30349.9
1.155 	247.802 	293.207 	30349.9
1.165 	247.806 	293.207 	30349.9
1.175 	247.81 	293.207 	30349.9
1.185 	247.815 	293.207 	30349.8
1.195 	247.82 	293.207 	30349.8
1.205 	247.826 	293.207 	30349.8
1.215 	247.832 	293.207 	30349.8
1.225 	247.838 	293.207 	30349.8
1.235 	247.845 	293.207 	30349.8
1.245 	247.853 	293.207 	30349.8
1.255 	247.861 	293.207 	30349.8
1.265 	247.87 	293.207 	30349.8
1.275 	247.881 	293.207 	30349.8
1.285 	247.892 	293.207 	30349.8
1.295 	247.905 	293.207 	30349.8
1.305 	247.919 	293.207 	30349.8
1.315 	247.936 	293.207 	30349.8
1.325 	247.955 	293.207 	30349.8
1.335 	247.976 	293.207 	30349.8
1.345 	248.001 	293.207 	30349.8
1.355 	248.032 	293.207 	30349.8
1.365 	248.069 	293.207 	30349.8
1.375 	248.115 	293.207 	30349.8
1.385 	248.175 	293.207 	30349.8
1.395 	248.26 	293.207 	30349.8
1.405 	248.428 	293.207 	30349.8
1.415 	248.958 	293.207 	30349.8
1.425 	250.743 	293.207 	30349.8
1.435 	255.625 	293.207 	30349.8
1.445 	266.081 	293.206 	30349.7
1.455 	283.99 	293.204 	30349.7
1.465 	308.913 	293.203 	30349.8
1.475 	336.963 	293.204 	30349.8
1.485 	362.084 	293.205 	30349.9
1.495 	379.812 	293.207 	30349.9
1.505 	389.75 	293.207 	30349.9
1.515 	394.271 	293.207 	30349.8
1.525 	395.983 	293.207 	30349.8
1.535 	396.532 	293.207 	30349.8
1.545 	396.685 	293.207 	30349.8
1.555 	396.723 	293.207 	30349.8
1.565 	396.732 	293.207 	30349.8
1.575 	396.734 	293.207 	30349.8
1.585 	396.736 	293.207 	30349.8
1.595 	396.737 	293.207 	30349.8
1.605 	396.738 	293.207 	30349.8
1.615 	396.738 	293.207 	30349.8
1.625 	396.739 	293.207 	30349.8
1.635 	396.74 	293.207 	30349.8
1.645 	396.74 	293.207 	30349.8
1.655 	396.74 	293.207 	30349.8
1.665 	396.741 	293.207 	30349.8
1.675 	396.741 	293.207 	30349.8
1.685 	396.741 	293.207 	30349.8
1.695 	396.742 	293.207 	30349.8
1.705 	396.742 	293.207 	30349.8
1.715 	396.742 	293.207 	30349.8
1.725 	396.742 	293.207 	30349.8
1.735 	396.742 	293.207 	30349.8
1.745 	396.743 	293.207 	30349.8
1.755 	396.743 	293.207 	30349.8
1.765 	396.743 	293.207 	30349.8
1.775 	396.743 	293.207 	30349.8
1.785 	396.743 	293.207 	30349.8
1.795 	396.743 	293.207 	30349.8
1.805 	396.743 	293.207 	30349.8
1.815 	396.743 	293.207 	30349.8
1.825 	396.743 	293.207 	30349.8
1.835 	396.744 	293.207 	30349.8
1.845 	396.744 	293.207 	30349.8
1.855 	396.744 	293.207 	30349.8
1.865 	396.744 	293.207 	30349.8
1.875 	396.744 	293.207 	30349.8
1.885 	396.744 	293.207 	30349.8
1.895 	396.744 	293.207 	30349.8
1.905 	396.744 	293.207 	30349.8
1.915 	396.744 	293.207 	30349.8
1.925 	396.744 	293.207 	30349.8
1.935 	396.744 	293.207 	30349.8
1.945 	396.744 	293.207 	30349.8
1.955 	396.744 	293.207 	30349.8
1.965 	396.744 	293.207 	30349.8
1.975 	396.744 	293.207 	30349.8
1.985 	396.744 	293.207 	30349.8
1.995 	396.744 	293.207 	30349.8
2.005 	396.744 	293.207 	30349.8
2.015 	396.744 	293.207 	30349.8
2.025 	396.744 	293.207 	30349.8
2.035 	396.744 	293.207 	30349.8
2.045 	396.744 	293.207 	30349.8
2.055 	396.744 	293.207 	30349.8
2.065 	396.744 	293.207 	30349.8
2.075 	396.744 	293.207 	30349.8
2.085 	396.744 	293.207 	30349.8
2.095 	396.745 	293.207 	30349.8
2.105 	396.744 	293.207 	30349.8
2.115 	396.744 	293.207 	30349.8
2.125 	396.745 	293.207 	30349.8
2.135 	396.745 	293.207 	30349.8
2.145 	396.745 	293.207 	30349.8
2.155 	396.745 	293.207 	30349.8
2.165 	396.745 	293.207 	30349.8
2.175 	396.745 	293.207 	30349.8
2.185 	396.745 	293.207 	30349.8
2.195 	396.745 	293.207 	30349.8
2.205 	396.745 	293.207 	30349.8
2.215 	396.745 	293.207 	30349.8
2.225 	396.745 	293.207 	30349.8
2.235 	396.745 	293.207 	30349.8
2.245 	396.745 	293.207 	30349.8
2.255 	396.745 	293.207 	30349.8
2.265 	396.745 	293.207 	30349.8
2.275 	396.745 	293.207 	30349.8
2.285 	396.745 	293.207 	30349.8
2.295 	396.745 	293.207 	30349.7
2.305 	396.745 	293.207 	30349.7
2.315 	396.745 	293.207 	30349.7
2.325 	396.745 	293.207 	30349.7
2.335 	396.745 	293.207 	30349.7
2.345 	396.745 	293.207 	30349.7
2.355 	396.745 	293.207 	30349.7
2.365 	396.745 	293.207 	30349.7
2.375 	396.745 	293.207 	30349.7
2.385 	396.745 	293.207 	30349.7
2.395 	396.745 	293.207 	30349.7
2.405 	396.745 	293.207 	30349.7
2.415 	396.745 	293.207 	30349.7
2.425 	396.745 	293.207 	30349.7
2.435 	396.745 	293.207 	30349.7
2.445 	396.745 	293.207 	30349.7
2.455 	396.745 	293.206 	30349.7
2.465 	396.745 	293.206 	30349.7
2.475 	396.745 	293.206 	30349.7
2.485 	396.745 	293.206 	30349.7
2.495 	396.745 	293.206 	30349.7
2.505 	396.745 	293.206 	30349.7
2.515 	396.745 	293.206 	30349.7
2.525 	396.745 	293.206 	30349.7
2.535 	396.745 	293.206 	30349.7
2.545 	396.745 	293.206 	30349.7
2.555 	396.745 	293.206 	30349.7
2.565 	396.745 	293.206 	30349.7
2.575 	396.745 	293.206 	30349.7
2.585 	396.745 	293.206 	30349.7
2.595 	396.745 	293.206 	30349.7
2.605 	396.745 	293.206 	30349.7
2.615 	396.745 	293.206 	30349.7
2.625 	396.744 	293.206 	30349.7
2.635 	396.745 	293.206 	30349.7
2.645 	396.745 	293.206 	30349.7
2.655 	396.744 	293.206 	30349.6
2.665 	396.745 	293.205 	30349.7
2.675 	396.744 	293.207 	30349.6
2.685 	396.745 	293.205 	30349.7
2.695 	396.744 	293.206 	30349.6
2.705 	396.744 	293.205 	30349.7
2.715 	396.745 	293.205 	30349.7
2.725 	396.744 	293.207 	30349.5
2.735 	396.745 	293.202 	30350
2.745 	396.741 	293.201 	30348.7
2.755 	396.263 	291.949 	30221.4
2.765 	280.282 	5.4779 	10204
2.775 	278.746 	5.39362e-06 	10000
2.785 	278.746 	7.43951e-12 	10000
2.795 	278.746 	3.85835e-12 	10000
2.805 	278.746 	4.22303e-12 	10000
2.815 	278.746 	4.63148e-12 	10000
2.825 	278.746 	3.12898e-12 	10000
2.835 	278.746 	1.63378e-12 	10000
2.845 	278.746 	3.20921e-13 	10000
2.855 	278.746 	3.06334e-13 	10000
2.865 	278.746 	2.22456e-12 	10000
2.875 	278.746 	3.54472e-12 	10000
2.885 	278.746 	4.1428e-12 	10000
2.895 	278.746 	2.70595e-12 	10000
2.905 	278.746 	1.99117e-12 	10000
2.915 	278.746 	1.42956e-12 	10000
2.925 	278.746 	1.24721e-12 	10000
2.935 	278.746 	1.48061e-12 	10000
2.945 	278.746 	1.42955e-12 	10000
2.955 	278.746 	1.85988e-12 	10000
2.965 	278.746 	2.81535e-12 	10000
2.975 	278.746 	2.14433e-12 	10000
2.985 	278.746 	7.87716e-13 	10000
2.995 	278.746 	3.42802e-13 	10000
3.005 	278.746 	1.27639e-12 	10000
3.015 	278.746 	1.71401e-12 	10000
3.025 	278.746 	2.02764e-12 	10000
3.035 	278.746 	3.58119e-12 	10000
3.045 	278.746 	2.51631e-12 	10000
3.055 	278.746 	2.36315e-12 	10000
3.065 	278.746 	9.19002e-13 	10000
3.075 	278.746 	1.43685e-12 	10000
3.085 	278.746 	1.82341e-12 	10000
3.095 	278.746 	9.84643e-13 	10000
3.105 	278.746 	1.66296e-12 	10000
3.115 	278.746 	2.13704e-12 	10000
3.125 	278.746 	3.00499e-12 	10000
3.135 	278.746 	2.59654e-12 	10000
3.145 	278.746 	1.75048e-12 	10000
3.155 	278.746 	1.81612e-12 	10000
3.165 	278.746 	2.60384e-12 	10000
3.175 	278.746 	2.19539e-12 	10000
3.185 	278.746 	1.63378e-12 	10000
3.195 	278.746 	9.5547e-13 	10000
3.205 	278.746 	2.72783e-12 	10000
3.215 	278.746 	3.57389e-12 	10000
3.225 	278.746 	5.1712e-12 	10000
3.235 	278.746 	4.05527e-12 	10000
3.245 	278.746 	2.3048e-12 	10000
3.255 	278.746 	2.69136e-12 	10000
3.265 	278.746 	2.5236e-12 	10000
3.275 	278.746 	4.74818e-12 	10000
3.285 	278.746 	4.82841e-12 	10000
3.295 	278.746 	4.24491e-12 	10000
3.305 	278.746 	3.8e-12 	10000
3.315 	278.746 	4.23032e-12 	10000
3.325 	278.746 	4.44184e-12 	10000
3.335 	278.746 	3.69789e-12 	10000
3.345 	278.746 	2.24645e-12 	10000
3.355 	278.746 	7.3666e-13 	10000
3.365 	278.746 	1.13781e-12 	10000
3.375 	278.746 	2.98311e-12 	10000
3.385 	278.746 	3.29673e-12 	10000
3.395 	278.746 	4.33973e-12 	10000
3.405 	278.746 	5.03263e-12 	10000
3.415 	278.746 	6.25066e-12 	10000
3.425 	278.746 	5.8714e-12 	10000
3.435 	278.746 	4.85028e-12 	10000
3.445 	278.746 	3.82188e-12 	10000
3.455 	278.746 	2.67677e-12 	10000
3.465 	278.746 	3.5739e-12 	10000
3.475 	278.746 	3.31133e-12 	10000
3.485 	278.746 	3.04146e-12 	10000
3.495 	278.746 	4.22303e-12 	10000
3.505 	278.746 	5.39002e-12 	10000
3.515 	278.746 	6.0975e-12 	10000
3.525 	278.746 	5.65259e-12 	10000
3.535 	278.746 	3.98964e-12 	10000
3.545 	278.746 	3.25298e-12 	10000
3.555 	278.746 	3.70518e-12 	10000
3.565 	278.746 	4.50748e-12 	10000
3.575 	278.746 	4.69712e-12 	10000
3.585 	278.746 	6.00268e-12 	10000
3.595 	278.746 	6.06103e-12 	10000
3.605 	278.746 	6.04645e-12 	10000
3.615 	278.746 	6.7904e-12 	10000
3.625 	278.746 	7.40307e-12 	10000
3.635 	278.746 	7.49788e-12 	10000
3.645 	278.746 	6.44031e-12 	10000
3.655 	278.746 	5.72552e-12 	10000