/*--------------------------------*- C++ -*----------------------------------*\
| =========                 |                                                 |
| \\      /  F ield         | OpenFOAM: The Open Source CFD Toolbox           |
|  \\    /   O peration     | Version:  v2012                                 |
|   \\  /    A nd           | Website:  www.openfoam.com                      |
|    \\/     M anipulation  |                                                 |
\*---------------------------------------------------------------------------*/
FoamFile
{
    version     2.0;
    format      ascii;
    class       volScalarField;
    location    "4";
    object      T;
}
// * * * * * * * * * * * * * * * * * * * * * * * * * * * * * * * * * * * * * //

dimensions      [0 0 0 1 0 0 0];


internalField   nonuniform List<scalar> 
1000
(
1.03492e-282
1.03492e-282
1.03492e-282
1.03492e-282
1.03492e-282
1.03492e-282
1.03492e-282
1.03492e-282
1.03492e-282
1.03492e-282
1.03492e-282
1.03492e-282
1.03492e-282
1.03492e-282
1.03492e-282
1.03492e-282
1.03492e-282
1.03492e-282
1.03492e-282
1.03492e-282
1.03492e-282
1.03492e-282
1.03492e-282
1.03492e-282
1.03492e-282
1.03492e-282
1.03492e-282
1.03492e-282
1.03492e-282
1.03492e-282
1.03492e-282
1.03492e-282
1.03492e-282
1.03492e-282
1.03492e-282
1.03492e-282
1.03492e-282
1.03492e-282
1.03492e-282
1.03492e-282
1.03492e-282
1.03492e-282
1.03492e-282
1.03492e-282
1.03492e-282
1.03492e-282
1.03492e-282
1.03492e-282
1.03492e-282
1.03492e-282
1.03492e-282
1.03492e-282
1.03492e-282
1.03492e-282
1.03492e-282
1.03492e-282
1.03492e-282
1.03492e-282
1.03492e-282
1.03492e-282
1.03492e-282
1.03492e-282
1.03492e-282
1.03492e-282
1.03492e-282
1.03492e-282
1.03492e-282
1.03492e-282
1.03492e-282
1.03492e-282
1.03492e-282
1.03492e-282
1.03492e-282
1.03492e-282
1.03492e-282
1.03492e-282
1.03492e-282
1.03492e-282
1.03492e-282
1.03492e-282
1.03492e-282
1.03492e-282
1.03492e-282
1.03492e-282
1.03492e-282
1.03492e-282
1.03492e-282
1.03492e-282
1.03492e-282
1.03492e-282
1.03492e-282
1.03492e-282
1.03492e-282
1.03492e-282
1.03492e-282
1.03492e-282
1.03492e-282
1.03492e-282
1.03492e-282
1.03492e-282
1.03492e-282
1.03492e-282
1.03492e-282
1.03492e-282
1.03492e-282
1.03492e-282
1.03492e-282
1.03492e-282
1.03492e-282
1.03492e-282
1.03492e-282
1.03492e-282
1.03492e-282
1.03492e-282
1.03492e-282
1.03492e-282
1.03492e-282
1.03492e-282
1.03492e-282
1.03492e-282
1.03492e-282
1.03492e-282
1.03492e-282
1.03492e-282
1.03492e-282
1.03492e-282
1.03492e-282
1.03492e-282
1.03492e-282
1.03492e-282
1.03492e-282
1.03492e-282
1.03492e-282
1.03492e-282
1.03492e-282
1.03492e-282
1.03492e-282
1.03492e-282
1.03492e-282
1.03492e-282
1.03492e-282
1.03492e-282
1.03491e-282
1.03491e-282
1.03497e-282
1.03537e-282
1.03708e-282
1.04256e-282
1.05427e-282
1.05624e-282
9.17799e-283
3.89044e-284
-3.59915e-282
-1.47204e-281
-3.64788e-281
-2.76477e-281
3.05587e-280
2.23902e-279
9.83673e-279
3.16791e-278
6.8311e-278
1.32417e-278
-7.92239e-277
-5.01485e-276
-2.05323e-275
-6.13821e-275
-1.12628e-274
9.60159e-275
2.02106e-273
1.10849e-272
4.17166e-272
1.12563e-271
1.53172e-271
-5.01565e-271
-4.99038e-270
-2.38831e-269
-8.13134e-269
-1.89084e-268
-1.12154e-268
1.71974e-267
1.18075e-266
4.94701e-266
1.4881e-265
2.70606e-265
-2.52862e-265
-4.94142e-264
-2.6505e-263
-9.67814e-263
-2.4626e-262
-2.55825e-262
1.57154e-261
1.26287e-260
5.5735e-260
1.74111e-259
3.38517e-259
-1.69092e-259
-5.25958e-258
-2.91933e-257
-1.07683e-256
-2.73999e-256
-2.77804e-256
1.78281e-255
1.40435e-254
6.08669e-254
1.84593e-253
3.30874e-253
-3.50108e-253
-6.19248e-252
-3.21337e-251
-1.12075e-250
-2.59284e-250
-1.29627e-250
2.462e-249
1.605e-248
6.34803e-248
1.72485e-247
2.21744e-247
-8.41103e-247
-7.65263e-246
-3.42071e-245
-1.04621e-244
-1.86168e-244
2.09162e-244
3.50954e-243
1.77728e-242
5.97373e-242
1.27009e-241
-1.8168e-244
-1.5608e-240
-8.99802e-240
-3.2692e-239
-7.7863e-239
-4.73231e-239
6.80554e-238
4.48011e-237
1.7348e-236
4.45849e-236
4.33113e-236
-2.95682e-235
-2.212e-234
-8.99799e-234
-2.42991e-233
-2.88297e-233
1.30971e-232
1.09084e-231
4.58648e-231
1.27303e-230
1.64622e-230
-6.07537e-230
-5.40199e-229
-2.30473e-228
-6.44081e-228
-8.42129e-228
3.01321e-227
2.69343e-226
1.14272e-225
3.14881e-225
3.8778e-225
-1.60147e-224
-1.35102e-223
-5.58146e-223
-1.48257e-222
-1.56432e-222
8.95465e-222
6.78728e-221
2.67439e-220
6.66892e-220
5.00761e-220
-5.12023e-219
-3.38931e-218
-1.24819e-217
-2.82279e-217
-7.21103e-218
2.91477e-216
1.66544e-215
5.61411e-215
1.09236e-214
-6.44384e-215
-1.61806e-213
-7.95554e-213
-2.39524e-212
-3.62524e-212
8.30422e-212
8.62328e-211
3.64095e-210
9.45235e-210
8.36718e-210
-6.41235e-209
-4.35385e-208
-1.56706e-207
-3.29187e-207
5.42215e-208
4.03323e-206
2.05367e-205
6.17309e-205
8.98485e-205
-2.29645e-204
-2.20935e-203
-8.88603e-203
-2.12024e-202
-9.88902e-203
1.86587e-201
1.07174e-200
3.42564e-200
5.62759e-200
-9.29799e-200
-1.09962e-198
-4.57404e-198
-1.11023e-197
-5.86307e-198
9.25699e-197
5.32045e-196
1.66648e-195
2.55835e-195
-5.35999e-195
-5.47008e-194
-2.14892e-193
-4.77278e-193
-4.66484e-194
4.92163e-192
2.48451e-191
6.96972e-191
7.66891e-191
-3.68859e-190
-2.62454e-189
-8.89524e-189
-1.54818e-188
1.89442e-188
2.55331e-187
1.03489e-186
2.30772e-186
2.54873e-187
-2.28919e-185
-1.12155e-184
-2.97117e-184
-2.51201e-184
1.87854e-183
1.14754e-182
3.48358e-182
4.63251e-182
-1.38481e-181
-1.11941e-180
-3.81494e-180
-6.41178e-180
8.75798e-180
1.04966e-178
3.95998e-178
7.70895e-178
-4.12037e-178
-9.53381e-177
-3.93348e-176
-8.45587e-176
3.82642e-177
8.45184e-175
3.76337e-174
8.65305e-174
2.20913e-174
-7.36783e-173
-3.48355e-172
-8.357e-172
-3.61283e-172
6.35775e-171
3.12813e-170
7.66336e-170
3.95966e-170
-5.45561e-169
-2.72802e-168
-6.68962e-168
-3.50153e-168
4.66196e-167
2.30954e-166
5.55949e-166
2.54858e-166
-3.95772e-165
-1.89458e-164
-4.38975e-164
-1.40824e-164
3.31867e-163
1.50126e-162
3.27975e-162
3.35324e-163
-2.72689e-161
-1.14432e-160
-2.30372e-160
4.99645e-161
2.17641e-159
8.34819e-159
1.50646e-158
-1.02041e-158
-1.67297e-157
-5.79543e-157
-9.03052e-157
1.23422e-156
1.22901e-155
3.80349e-155
4.82899e-155
-1.20607e-154
-8.57016e-154
-2.34201e-153
-2.17176e-153
1.02677e-152
5.63866e-152
1.34046e-151
6.80624e-152
-7.84287e-151
-3.48104e-150
-7.04207e-150
2.59655e-151
5.44996e-149
2.00551e-148
3.32973e-148
-2.70372e-148
-3.46961e-147
-1.07197e-146
-1.366e-146
2.86068e-146
2.03081e-145
5.27848e-145
4.43977e-145
-2.17515e-144
-1.09442e-143
-2.37144e-143
-7.56016e-144
1.38714e-142
5.4303e-142
9.57345e-142
-3.60444e-142
-7.79213e-141
-2.47753e-140
-3.37563e-140
4.88315e-140
3.93971e-139
1.03646e-138
9.72797e-139
-3.44741e-138
-1.81298e-137
-3.95599e-137
-1.7984e-137
1.92002e-136
7.64179e-136
1.36548e-135
-2.06582e-136
-9.22645e-135
-2.96131e-134
-4.19195e-134
4.22022e-134
3.96199e-133
1.0572e-132
1.10464e-132
-2.70031e-132
-1.54778e-131
-3.47972e-131
-2.2681e-131
1.29971e-130
5.56074e-130
1.05545e-129
2.19832e-130
-5.33958e-129
-1.85126e-128
-2.94392e-128
9.61371e-129
1.95935e-127
5.74521e-127
7.51746e-127
-7.67495e-127
-6.56844e-126
-1.67085e-125
-1.74236e-125
3.49147e-125
2.03938e-124
4.57707e-124
3.60447e-124
-1.28204e-123
-5.92063e-123
-1.18737e-122
-6.41964e-123
4.12977e-122
1.61917e-121
2.93427e-121
8.93075e-122
-1.20772e-120
-4.19705e-120
-6.95339e-120
-5.9418e-121
3.26466e-119
1.03664e-118
1.59162e-118
-1.65648e-119
-8.24522e-118
-2.45088e-117
-3.54594e-117
8.79283e-118
1.95888e-116
5.56748e-116
7.74399e-116
-2.54703e-116
-4.39589e-115
-1.2186e-114
-1.66706e-114
5.56569e-115
9.33609e-114
2.57425e-113
3.54755e-113
-9.20835e-114
-1.87614e-112
-5.2502e-112
-7.45914e-112
8.54718e-113
3.55747e-111
1.0326e-110
1.54401e-110
1.29163e-111
-6.32493e-110
-1.95303e-109
-3.12758e-109
-9.85319e-110
1.04181e-108
3.53575e-108
6.15427e-108
3.46235e-108
-1.55323e-107
-6.08449e-107
-1.16702e-106
-9.51889e-107
1.99118e-106
9.85071e-106
2.11467e-105
2.26415e-105
-1.87808e-105
-1.47651e-104
-3.62751e-104
-4.8288e-104
2.12622e-105
1.99213e-103
5.82405e-103
9.36847e-103
4.7577e-103
-2.27813e-102
-8.61371e-102
-1.66022e-101
-1.56013e-101
1.82542e-101
1.14332e-100
2.6782e-100
3.52904e-100
1.83796e-101
-1.29158e-99
-3.88645e-99
-6.58933e-99
-4.79021e-99
1.06493e-98
4.9412e-98
1.06067e-97
1.28963e-97
-1.33591e-98
-5.16941e-97
-1.47605e-96
-2.45287e-96
-1.82199e-96
3.59503e-96
1.72463e-95
3.77999e-95
4.89864e-95
7.89989e-96
-1.53159e-94
-4.8001e-94
-8.6695e-94
-8.4237e-94
6.02918e-94
4.76848e-93
1.19259e-92
1.83307e-92
1.20653e-92
-2.87798e-92
-1.27112e-91
-2.74357e-91
-3.6645e-91
-1.27878e-91
8.92203e-91
3.07347e-90
5.99182e-90
7.11281e-90
4.43971e-91
-2.30121e-89
-6.94197e-89
-1.26573e-88
-1.37973e-88
2.1254e-89
5.28722e-88
1.48945e-87
2.62109e-87
2.74655e-87
-6.55529e-88
-1.11027e-86
-3.06205e-86
-5.36007e-86
-5.69264e-86
8.97982e-87
2.14372e-85
6.04315e-85
1.08304e-84
1.22284e-84
7.56672e-86
-3.76677e-84
-1.13945e-83
-2.14888e-83
-2.66731e-83
-9.4499e-84
5.81458e-83
2.02713e-82
4.13663e-82
5.75371e-82
3.80582e-82
-7.10938e-82
-3.32273e-81
-7.59264e-81
-1.19676e-80
-1.14322e-80
3.95436e-81
4.78679e-80
1.29688e-79
2.34543e-79
2.8935e-79
1.24243e-79
-5.36639e-79
-1.98402e-78
-4.22671e-78
-6.39552e-78
-5.89106e-78
2.31364e-78
2.514e-77
6.77137e-77
1.24089e-76
1.61023e-76
9.80706e-77
-2.02318e-76
-9.04128e-76
-2.07741e-75
-3.43433e-75
-3.90908e-75
-1.20416e-75
8.29801e-75
2.84447e-74
5.98207e-74
9.26438e-74
9.60774e-74
7.59577e-75
-2.66928e-73
-8.21558e-73
-1.65661e-72
-2.49391e-72
-2.50377e-72
-3.68854e-74
7.37177e-72
2.22062e-71
4.4613e-71
6.77211e-71
7.05929e-71
1.08791e-71
-1.76545e-70
-5.62317e-70
-1.16722e-69
-1.84724e-69
-2.11121e-69
-9.09155e-70
3.47278e-69
1.31161e-68
2.9284e-68
4.9732e-68
6.40843e-68
4.77296e-68
-4.31784e-68
-2.69212e-67
-6.85891e-67
-1.28573e-66
-1.88686e-66
-1.96478e-66
-4.64946e-67
4.28054e-66
1.42713e-65
3.07595e-65
5.18102e-65
6.80392e-65
5.67104e-65
-2.39548e-65
-2.3524e-64
-6.43315e-64
-1.27404e-63
-2.01824e-63
-2.47367e-63
-1.73541e-63
1.79258e-63
1.03785e-62
2.63797e-62
5.05406e-62
7.84929e-62
9.49504e-62
6.5947e-62
-6.84323e-62
-3.94438e-61
-1.00568e-60
-1.94478e-60
-3.07991e-60
-3.89311e-60
-3.18215e-60
1.25633e-60
1.2763e-59
3.5355e-59
7.19585e-59
1.20329e-58
1.65563e-58
1.68613e-58
5.20536e-59
-3.11607e-58
-1.0964e-57
-2.48026e-57
-4.52551e-57
-6.93254e-57
-8.61876e-57
-7.11134e-57
2.15017e-57
2.62808e-56
7.44745e-56
1.55293e-55
2.69713e-55
3.97349e-55
4.73349e-55
3.55416e-55
-2.14146e-55
-1.63489e-54
-4.42644e-54
-9.0907e-54
-1.57511e-53
-2.34237e-53
-2.87655e-53
-2.42165e-53
4.30732e-54
7.94688e-53
2.32596e-52
4.98446e-52
8.98978e-52
1.40779e-51
1.88483e-51
1.97177e-51
9.46317e-52
-2.44426e-51
-1.01046e-50
-2.4519e-50
-4.82088e-50
-8.22599e-50
-1.23258e-49
-1.57803e-49
-1.53837e-49
-4.8578e-50
2.65468e-49
9.51519e-49
2.22527e-48
4.31579e-48
7.35419e-48
1.11346e-47
1.46742e-47
1.54906e-47
8.54109e-48
-1.51374e-47
-6.9819e-47
-1.75791e-46
-3.57862e-46
-6.38916e-46
-1.024e-45
-1.46819e-45
-1.81935e-45
-1.72581e-45
-5.01797e-46
3.04619e-45
1.08028e-44
2.54562e-44
5.03659e-44
8.88606e-44
1.42417e-43
2.06859e-43
2.65375e-43
2.76805e-43
1.57635e-43
-2.43232e-43
-1.17572e-42
-3.0197e-42
-6.30013e-42
-1.16534e-41
-1.96831e-41
-3.06024e-41
-4.34965e-41
-5.49658e-41
-5.68273e-41
-3.24954e-41
4.83026e-41
2.36569e-40
6.12249e-40
1.29156e-39
2.42852e-39
4.20093e-39
6.76267e-39
1.01317e-38
1.39651e-38
1.7146e-38
1.7081e-38
8.5713e-39
-1.78917e-38
-7.85348e-38
-1.99427e-37
-4.20034e-37
-7.96277e-37
-1.40097e-36
-2.3173e-36
-3.61753e-36
-5.31299e-36
-7.2529e-36
-8.93629e-36
-9.18355e-36
-5.59157e-36
6.32925e-36
3.44604e-35
9.19526e-35
1.99765e-34
3.89818e-34
7.08388e-34
1.2187e-33
2.00038e-33
3.14119e-33
4.71254e-33
6.71382e-33
8.96022e-33
1.0873e-32
1.11064e-32
6.91212e-33
-6.90991e-33
-3.96864e-32
-1.07469e-31
-2.36941e-31
-4.71103e-31
-8.77225e-31
-1.55744e-30
-2.66193e-30
-4.40347e-30
-7.07001e-30
-1.10273e-29
-1.66955e-29
-2.44692e-29
-3.45243e-29
-4.64135e-29
-5.82785e-29
-6.53918e-29
-5.75489e-29
-1.45279e-29
1.01647e-28
3.59657e-28
8.80256e-28
1.87104e-27
3.68242e-27
6.89675e-27
1.2469e-26
2.19467e-26
3.78116e-26
6.40058e-26
1.06737e-25
1.75704e-25
2.85946e-25
4.60623e-25
7.35173e-25
1.16349e-24
1.82706e-24
2.84842e-24
4.41085e-24
6.78716e-24
1.03814e-23
1.57895e-23
2.38859e-23
3.5949e-23
5.38392e-23
8.02542e-23
1.19089e-22
1.75948e-22
2.58864e-22
3.79309e-22
5.53615e-22
8.04944e-22
1.16605e-21
1.68307e-21
2.42086e-21
3.47019e-21
4.95785e-21
7.06031e-21
1.00225e-20
1.41835e-20
2.00112e-20
2.81497e-20
3.94832e-20
5.5222e-20
7.70191e-20
1.07126e-19
1.486e-19
2.05587e-19
2.8369e-19
3.90465e-19
5.36079e-19
7.34179e-19
1.00304e-18
1.36708e-18
1.85885e-18
2.52166e-18
3.41297e-18
4.6089e-18
6.21005e-18
8.34908e-18
1.12006e-17
1.49939e-17
2.00295e-17
2.67006e-17
3.55204e-17
4.71576e-17
6.24817e-17
8.26213e-17
1.09038e-16
1.43623e-16
1.88815e-16
2.47757e-16
3.24489e-16
4.24198e-16
5.5353e-16
7.20983e-16
9.37409e-16
1.21664e-15
1.57626e-15
2.03863e-15
2.63208e-15
3.3925e-15
4.3652e-15
5.6074e-15
7.19114e-15
9.20704e-15
1.17689e-14
1.50193e-14
1.91367e-14
2.43444e-14
3.09205e-14
3.92119e-14
4.965e-14
6.27705e-14
7.92379e-14
9.98749e-14
1.25699e-13
1.57966e-13
1.98225e-13
2.48382e-13
3.10782e-13
3.883e-13
4.84465e-13
6.03594e-13
7.50964e-13
9.33018e-13
1.15761e-12
1.4343e-12
1.77472e-12
2.19297e-12
2.70616e-12
3.33502e-12
4.10461e-12
5.04517e-12
6.19321e-12
7.59268e-12
9.29646e-12
1.13681e-11
1.38838e-11
1.69351e-11
2.06311e-11
2.51027e-11
3.05059e-11
3.7027e-11
4.48875e-11
5.43512e-11
6.57314e-11
7.93999e-11
9.57976e-11
1.15446e-10
1.38962e-10
1.67075e-10
2.00644e-10
2.40682e-10
2.88382e-10
3.45145e-10
4.12617e-10
4.92729e-10
5.87742e-10
7.00305e-10
8.33511e-10
9.90977e-10
1.17693e-09
1.39637e-09
1.65564e-09
1.966e-09
2.36845e-09
)
;

boundaryField
{
    sides
    {
        type            zeroGradient;
    }
    empty
    {
        type            empty;
    }
}


// ************************************************************************* //
