/*--------------------------------*- C++ -*----------------------------------*\
| =========                 |                                                 |
| \\      /  F ield         | OpenFOAM: The Open Source CFD Toolbox           |
|  \\    /   O peration     | Version:  v2012                                 |
|   \\  /    A nd           | Website:  www.openfoam.com                      |
|    \\/     M anipulation  |                                                 |
\*---------------------------------------------------------------------------*/
FoamFile
{
    version     2.0;
    format      ascii;
    class       volScalarField;
    location    "0.04";
    object      T;
}
// * * * * * * * * * * * * * * * * * * * * * * * * * * * * * * * * * * * * * //

dimensions      [0 0 0 1 0 0 0];


internalField   nonuniform List<scalar> 
1000
(
1.62457e-268
-8.01133e-268
3.31188e-267
-1.38203e-266
5.76382e-266
-2.40382e-265
1.00248e-264
-4.18058e-264
1.74333e-263
-7.26959e-263
3.03127e-262
-1.26393e-261
5.26994e-261
-2.19722e-260
9.16061e-260
-3.81909e-259
1.59214e-258
-6.63719e-258
2.76677e-257
-1.15331e-256
4.8073e-256
-2.00374e-255
8.3515e-255
-3.48074e-254
1.45065e-253
-6.04557e-253
2.51939e-252
-1.04987e-251
4.37482e-251
-1.82292e-250
7.59554e-250
-3.1647e-249
1.31853e-248
-5.49324e-248
2.2885e-247
-9.53359e-247
3.97141e-246
-1.6543e-245
6.89076e-245
-2.87014e-244
1.19542e-243
-4.97874e-243
2.07349e-242
-8.63506e-242
3.59593e-241
-1.4974e-240
6.23517e-240
-2.59621e-239
1.08097e-238
-4.50055e-238
1.87371e-237
-7.80043e-237
3.24726e-236
-1.35175e-235
5.62673e-235
-2.34205e-234
9.74808e-234
-4.05716e-233
1.68852e-232
-7.02699e-232
2.92425e-231
-1.21685e-230
5.06342e-230
-2.10683e-229
8.76585e-229
-3.64703e-228
1.51727e-227
-6.31203e-227
2.62575e-226
-1.09224e-225
4.54319e-225
-1.88966e-224
7.85933e-224
-3.26863e-223
1.35933e-222
-5.65282e-222
2.35062e-221
-9.77415e-221
4.064e-220
-1.68969e-219
7.02487e-219
-2.92044e-218
1.21405e-217
-5.04663e-217
2.09771e-216
-8.719e-216
3.62381e-215
-1.50606e-214
6.25886e-214
-2.60092e-213
1.08077e-212
-4.49076e-212
1.86587e-211
-7.75211e-211
3.22059e-210
-1.33791e-209
5.55769e-209
-2.30855e-208
9.58868e-208
-3.98249e-207
1.65397e-206
-6.8687e-206
2.85232e-205
-1.18439e-204
4.91779e-204
-2.04183e-203
8.477e-203
-3.51918e-202
1.46088e-201
-6.06404e-201
2.517e-200
-1.04467e-199
4.33561e-199
-1.79926e-198
7.46643e-198
-3.09816e-197
1.28549e-196
-5.33344e-196
2.21268e-195
-9.17918e-195
3.80768e-194
-1.5794e-193
6.55078e-193
-2.71686e-192
1.12672e-191
-4.67233e-191
1.93742e-190
-8.03316e-190
3.33058e-189
-1.38078e-188
5.72402e-188
-2.37273e-187
9.83481e-187
-4.07619e-186
1.68932e-185
-7.0007e-185
2.90095e-184
-1.20201e-183
4.98021e-183
-2.06327e-182
8.54736e-182
-3.54061e-181
1.46654e-180
-6.07402e-180
2.51552e-179
-1.04171e-178
4.31357e-178
-1.78605e-177
7.39463e-177
-3.06131e-176
1.26726e-175
-5.24555e-175
2.17111e-174
-8.98548e-174
3.71848e-173
-1.53871e-172
6.36668e-172
-2.63412e-171
1.08974e-170
-4.50792e-170
1.86463e-169
-7.71216e-169
3.1895e-168
-1.31897e-167
5.45392e-167
-2.255e-166
9.32286e-166
-3.85403e-165
1.5931e-164
-6.58466e-164
2.72136e-163
-1.12461e-162
4.64707e-162
-1.92007e-161
7.93265e-161
-3.27702e-160
1.35363e-159
-5.59093e-159
2.30901e-158
-9.53518e-158
3.93723e-157
-1.6256e-156
6.71109e-156
-2.77033e-155
1.14348e-154
-4.71938e-154
1.9476e-153
-8.03655e-153
3.31587e-152
-1.36799e-151
5.64318e-151
-2.32767e-150
9.60008e-150
-3.95898e-149
1.63248e-148
-6.7308e-148
2.77485e-147
-1.14384e-146
4.71464e-146
-1.94304e-145
8.007e-145
-3.29921e-144
1.35926e-143
-5.59947e-143
2.30644e-142
-9.49925e-142
3.91189e-141
-1.61077e-140
6.63181e-140
-2.73011e-139
1.12377e-138
-4.6251e-138
1.90333e-137
-7.83168e-137
3.22213e-136
-1.3255e-135
5.45206e-135
-2.24227e-134
9.22065e-134
-3.79123e-133
1.55863e-132
-6.40694e-132
2.63331e-131
-1.08217e-130
4.44665e-130
-1.82689e-129
7.50469e-129
-3.08244e-128
1.26589e-127
-5.19804e-127
2.13414e-126
-8.7608e-126
3.59587e-125
-1.47571e-124
6.05531e-124
-2.48433e-123
1.0191e-122
-4.17985e-122
1.71411e-121
-7.02834e-121
2.88138e-120
-1.18108e-119
4.84054e-119
-1.98353e-118
8.12671e-118
-3.32906e-117
1.36351e-116
-5.58373e-116
2.28622e-115
-9.35926e-115
3.83081e-114
-1.56772e-113
6.41459e-113
-2.62419e-112
1.07336e-111
-4.38957e-111
1.79481e-110
-7.33734e-110
2.99902e-109
-1.22557e-108
5.00749e-108
-2.04559e-107
8.35479e-107
-3.41169e-106
1.3929e-105
-5.6857e-105
2.3204e-104
-9.46794e-104
3.86243e-103
-1.57535e-102
6.42398e-102
-2.61903e-101
1.06754e-100
-4.35049e-100
1.77255e-99
-7.22042e-99
2.94057e-98
-1.1973e-97
4.87392e-97
-1.9836e-96
8.07104e-96
-3.28325e-95
1.33529e-94
-5.42931e-94
2.20703e-93
-8.96945e-93
3.64432e-92
-1.48033e-91
6.01159e-91
-2.44068e-90
9.90645e-90
-4.01987e-89
1.63076e-88
-6.61383e-88
2.68161e-87
-1.08698e-86
4.40476e-86
-1.78444e-85
7.22699e-85
-2.92608e-84
1.18437e-83
-4.79248e-83
1.93866e-82
-7.83988e-82
3.16945e-81
-1.28092e-80
5.17512e-80
-2.09016e-79
8.4391e-79
-3.40619e-78
1.37435e-77
-5.54339e-77
2.23514e-76
-9.0091e-76
3.62998e-75
-1.46207e-74
5.88676e-74
-2.36931e-73
9.53243e-73
-3.83371e-72
1.54123e-71
-6.19359e-71
2.48797e-70
-9.99013e-70
4.00976e-69
-1.60873e-68
6.45155e-68
-2.58617e-67
1.03624e-66
-4.15019e-66
1.66142e-65
-6.64802e-65
2.65889e-64
-1.06293e-63
4.24712e-63
-1.69618e-62
6.77071e-62
-2.70131e-61
1.07718e-60
-4.29315e-60
1.71013e-59
-6.80843e-59
2.70908e-58
-1.07734e-57
4.28187e-57
-1.70082e-56
6.75189e-56
-2.67872e-55
1.06209e-54
-4.20843e-54
1.66648e-53
-6.59468e-53
2.60794e-52
-1.03064e-51
4.07015e-51
-1.60623e-50
6.33415e-50
-2.49602e-49
9.82836e-49
-3.86704e-48
1.52032e-47
-5.97227e-47
2.34416e-46
-9.19331e-46
3.60232e-45
-1.4103e-44
5.51632e-44
-2.1557e-43
8.41628e-43
-3.28271e-42
1.27914e-41
-4.97923e-41
1.93624e-40
-7.52132e-40
2.91848e-39
-1.13119e-38
4.37945e-38
-1.69353e-37
6.54098e-37
-2.52322e-36
9.72114e-36
-3.74034e-35
1.43722e-34
-5.51487e-34
2.11316e-33
-8.08525e-33
3.08888e-32
-1.17825e-31
4.48724e-31
-1.70611e-30
6.47584e-30
-2.45372e-29
9.28043e-29
-3.50348e-28
1.32005e-27
-4.96383e-27
1.8627e-26
-6.97495e-26
2.60601e-25
-9.71429e-25
3.61253e-24
-1.3401e-23
4.95842e-23
-1.82974e-22
6.73329e-22
-2.47062e-21
9.03805e-21
-3.29591e-20
1.19797e-19
-4.33937e-19
1.56619e-18
-5.63154e-18
2.01696e-17
-7.19393e-17
2.55473e-16
-9.03097e-16
3.17708e-15
-1.11201e-14
3.87128e-14
-1.34006e-13
4.61076e-13
-1.57629e-12
5.35221e-12
-1.80414e-11
6.03433e-11
-2.00156e-10
6.57996e-10
-2.14236e-09
6.90309e-09
-2.19936e-08
6.92193e-08
-2.14954e-07
6.57806e-07
-1.98078e-06
5.85886e-06
-1.69883e-05
4.81729e-05
-0.000133206
0.000357927
-0.000930562
0.00232822
-0.00556688
0.0126044
-0.0266874
0.0518963
-0.0901588
0.133502
-0.153081
0.101355
0.0344027
-0.122948
-0.055996
0.198439
0.485022
0.708683
0.850739
0.929322
0.968614
0.986785
0.99468
0.997939
0.999228
0.999719
0.9999
0.999965
0.999988
0.999996
0.999999
1
1
1
1
1
1
1
1
1
1
1
1
1
1
1
1
1
1
1
1
1
1
1
1
1
1
1
1
1
1
1
1
1
1
1
1
1
1
1
1
1
1
1
1
1
1
1
1
1
1
1
1
1
1
1
1
1
1
1
1
1
1
1
1
0.999999
1
0.999994
1.00002
0.999952
1.00013
0.999642
1.00093
0.997672
1.00557
0.987396
1.02669
0.948104
1.09016
0.866498
1.15308
0.898645
0.965597
1.12295
1.056
0.801561
0.514978
0.291317
0.149261
0.0706778
0.031386
0.0132147
0.00531956
0.00206078
0.000772289
0.000281155
9.97767e-05
3.46155e-05
1.17683e-05
3.9287e-06
1.29012e-06
4.17359e-07
1.33186e-07
4.19728e-08
1.3076e-08
4.03059e-09
1.23023e-09
3.72081e-10
1.11582e-10
3.31971e-11
9.80349e-12
2.87499e-12
8.37626e-13
2.42543e-13
6.98241e-14
1.99912e-14
5.69403e-15
1.61385e-15
4.55284e-16
1.27872e-16
3.57633e-17
9.96217e-18
2.76444e-18
7.64315e-19
2.10581e-19
5.78249e-20
1.58278e-20
4.31908e-21
1.17513e-21
3.18824e-22
8.62655e-23
2.32803e-23
6.26686e-24
1.6829e-24
4.50874e-25
1.20524e-25
3.21478e-26
8.5569e-27
2.27301e-27
6.02611e-28
1.59459e-28
4.21178e-29
1.11048e-29
2.92287e-30
7.6804e-31
2.01491e-31
5.27771e-32
1.3803e-32
3.60464e-33
9.39992e-34
2.44783e-34
6.36571e-35
1.65326e-35
4.2882e-36
1.11088e-36
2.87428e-37
7.42808e-38
1.91744e-38
4.94399e-39
1.27337e-39
3.27619e-40
8.4203e-41
2.16194e-41
5.54531e-42
1.42097e-42
3.63775e-43
9.30416e-44
2.37753e-44
6.07003e-45
1.54838e-45
3.94637e-46
1.00498e-46
2.55718e-47
6.50162e-48
1.65175e-48
4.19309e-49
1.06366e-49
2.69619e-50
6.82949e-51
1.7287e-51
4.37275e-52
1.10534e-52
2.79221e-53
7.04885e-54
1.77833e-54
4.48369e-55
1.12977e-55
2.84503e-56
7.1602e-57
1.80099e-57
4.52741e-58
1.13749e-58
2.85629e-59
7.16844e-60
1.79811e-60
4.50798e-61
1.1296e-61
2.8291e-62
7.082e-63
1.77195e-63
4.4314e-64
1.10771e-64
2.76762e-65
6.91179e-66
1.72536e-66
4.30503e-67
1.0737e-67
2.67674e-68
6.67028e-69
1.66151e-69
4.13698e-70
1.02965e-70
2.56167e-71
6.37069e-72
1.58374e-72
3.93564e-73
9.77653e-74
2.4277e-74
6.02623e-75
1.49535e-75
3.70925e-76
9.19767e-77
2.27993e-77
5.64959e-78
1.39948e-78
3.46558e-79
8.57914e-80
2.12311e-80
5.25246e-81
1.29903e-81
3.21174e-82
7.93836e-83
1.96151e-83
4.84532e-84
1.19654e-84
2.95398e-85
7.2906e-86
1.79886e-86
4.43722e-87
1.09422e-87
2.69763e-88
6.6488e-89
1.63829e-89
4.03574e-90
9.93904e-91
2.44712e-91
6.02361e-92
1.48235e-92
3.64702e-93
8.97056e-94
2.20596e-94
5.4234e-95
1.33304e-95
3.27579e-96
8.04803e-97
1.97681e-97
4.85446e-98
1.19185e-98
2.92556e-99
7.17961e-100
1.76157e-100
4.32123e-101
1.0598e-101
2.59866e-102
6.37071e-103
1.56148e-103
3.82648e-104
9.3751e-105
2.2965e-105
5.62437e-106
1.3772e-106
3.37161e-107
8.2527e-108
2.01964e-108
4.94165e-109
1.2089e-109
2.95686e-110
7.23092e-111
1.76799e-111
4.32204e-112
1.05639e-112
2.58156e-113
6.30766e-114
1.54092e-114
3.76375e-115
9.19157e-116
2.24433e-116
5.47916e-117
1.33743e-117
3.26407e-118
7.96488e-119
1.94326e-119
4.74042e-120
1.15621e-120
2.8196e-121
6.87504e-122
1.67609e-122
4.08561e-123
9.95755e-124
2.42653e-124
5.91228e-125
1.44033e-125
3.50841e-126
8.5447e-127
2.08077e-127
5.06629e-128
1.23338e-128
3.00225e-129
7.30698e-130
1.77816e-130
4.32661e-131
1.05261e-131
2.56054e-132
6.22788e-133
1.51458e-133
3.68292e-134
8.9544e-135
2.17684e-135
5.29132e-136
1.28602e-136
3.12522e-137
7.59383e-138
1.84497e-138
4.48195e-139
1.08866e-139
2.64405e-140
6.42092e-141
1.5591e-141
3.78532e-142
9.18928e-143
2.23055e-143
5.41372e-144
1.31381e-144
3.18801e-145
7.73501e-146
1.87653e-146
4.55203e-147
1.1041e-147
2.67773e-148
6.49351e-149
1.57452e-149
3.81744e-150
9.25447e-151
2.2433e-151
5.43727e-152
1.31774e-152
3.19329e-153
7.73754e-154
1.87467e-154
4.54158e-155
1.10014e-155
2.66468e-156
6.45361e-157
1.56286e-157
3.7844e-158
9.16292e-159
2.21835e-159
5.37018e-160
1.29989e-160
3.14621e-161
7.61429e-162
1.84261e-162
4.45859e-163
1.07876e-163
2.60985e-164
6.31347e-165
1.52716e-165
3.69371e-166
8.93318e-167
2.16029e-167
5.22376e-168
1.26304e-168
3.05364e-169
7.38214e-170
1.78448e-170
4.31326e-171
1.04248e-171
2.51937e-172
6.08813e-173
1.4711e-173
3.5544e-174
8.58732e-175
2.07451e-175
5.01118e-176
1.21041e-176
2.92343e-177
7.06025e-178
1.70496e-178
4.11698e-179
9.94056e-180
2.4e-180
5.79403e-181
1.39868e-181
3.37618e-182
8.14897e-183
1.96675e-183
4.7464e-184
1.14538e-184
2.7638e-185
6.66857e-186
1.6089e-186
3.88147e-187
9.36342e-188
2.25862e-188
5.44784e-189
1.31394e-189
3.16883e-190
7.64177e-191
1.84273e-191
4.44324e-192
1.0713e-192
2.58282e-193
6.2266e-194
1.501e-194
3.61811e-195
8.7208e-196
2.10186e-196
5.06554e-197
1.22073e-197
2.94164e-198
7.08813e-199
1.70784e-199
4.1147e-200
9.91296e-201
2.38805e-201
5.7525e-202
1.38562e-202
3.3374e-203
8.03798e-204
1.9358e-204
4.66176e-205
1.12257e-205
2.70305e-206
6.50834e-207
1.56697e-207
3.7725e-208
9.08182e-209
2.18621e-209
5.26246e-210
1.26667e-210
3.04868e-211
7.33733e-212
1.7658e-212
4.24934e-213
1.02254e-213
2.46045e-214
5.92006e-215
1.42435e-215
3.42675e-216
8.24381e-217
1.98313e-217
4.77037e-218
1.14744e-218
2.75987e-219
6.6378e-220
1.59639e-220
3.83912e-221
9.23216e-222
2.22e-222
5.33805e-223
1.28349e-223
3.08588e-224
7.419e-225
1.78358e-225
4.28763e-226
1.03068e-226
2.47746e-227
5.95487e-228
1.43125e-228
3.43986e-229
8.26696e-230
1.98669e-230
4.77415e-231
1.14721e-231
2.75656e-232
6.6233e-233
1.59134e-233
3.82323e-234
9.185e-235
2.20653e-235
5.30055e-236
1.27325e-236
3.05835e-237
7.34584e-238
1.76432e-238
4.23737e-239
1.01764e-239
2.44386e-240
5.86867e-241
1.40924e-241
3.38386e-242
8.12496e-243
1.9508e-243
4.68367e-244
1.12445e-244
2.69948e-245
6.48039e-246
1.55562e-246
3.73414e-247
8.96312e-248
2.15135e-248
5.16352e-249
1.23926e-249
2.97416e-250
7.13752e-251
1.71283e-251
4.11022e-252
9.86277e-253
2.36655e-253
5.67828e-254
1.36239e-254
3.26866e-255
7.8419e-256
1.8813e-256
4.51312e-257
1.08263e-257
2.59698e-258
6.22931e-259
1.49416e-259
3.58374e-260
8.5953e-261
2.06144e-261
4.94384e-262
1.18561e-262
2.84319e-263
6.81793e-264
1.63488e-264
3.92015e-265
9.39948e-266
2.25374e-266
5.40073e-267
1.3064e-267
2.64913e-268
)
;

boundaryField
{
    sides
    {
        type            inletOutlet;
        inletValue      uniform 0;
        value           nonuniform List<scalar> 2(2.64913e-268 0);
    }
    empty
    {
        type            empty;
    }
}


// ************************************************************************* //
