/*--------------------------------*- C++ -*----------------------------------*\
| =========                 |                                                 |
| \\      /  F ield         | OpenFOAM: The Open Source CFD Toolbox           |
|  \\    /   O peration     | Version:  v2012                                 |
|   \\  /    A nd           | Website:  www.openfoam.com                      |
|    \\/     M anipulation  |                                                 |
\*---------------------------------------------------------------------------*/
FoamFile
{
    version     2.0;
    format      ascii;
    class       volScalarField;
    location    "4";
    object      T;
}
// * * * * * * * * * * * * * * * * * * * * * * * * * * * * * * * * * * * * * //

dimensions      [0 0 0 1 0 0 0];


internalField   nonuniform List<scalar> 
1000
(
0
0
0
0
0
0
0
0
0
0
0
0
0
0
0
0
0
0
0
0
0
0
0
0
0
0
0
0
0
0
0
0
0
0
0
0
0
0
0
0
0
0
0
0
0
0
0
0
0
0
0
0
0
0
0
0
0
0
0
0
0
0
0
0
0
0
0
0
0
0
0
0
0
0
0
0
0
0
0
0
0
0
0
0
0
0
0
0
0
0
0
0
0
0
0
0
0
0
0
0
0
0
0
0
0
0
0
0
0
0
0
0
0
0
0
0
0
0
0
0
0
0
0
0
0
0
0
0
0
0
0
0
0
0
0
0
0
0
0
0
0
0
0
0
0
0
0
0
0
0
0
0
0
0
0
0
0
0
0
0
0
0
0
0
0
0
0
0
0
0
0
0
0
0
0
0
0
0
0
0
0
0
0
0
0
0
0
0
0
0
0
0
0
0
0
0
0
0
0
0
0
0
0
0
0
0
0
0
0
0
0
0
0
0
0
0
0
0
0
0
0
0
0
0
0
0
0
0
0
0
0
0
0
0
0
0
0
0
0
0
0
0
0
0
0
0
0
0
0
0
0
0
0
0
0
0
0
0
0
0
0
0
0
0
0
0
0
0
0
0
0
0
0
0
0
0
0
0
0
0
0
0
0
0
0
0
0
0
0
0
0
0
0
0
0
0
0
0
0
0
0
0
0
0
0
0
0
0
0
0
0
0
0
0
0
0
0
0
0
0
0
0
0
0
0
0
0
0
0
0
0
0
0
0
0
0
0
0
0
0
0
0
0
0
0
0
0
0
0
0
0
0
0
0
0
0
0
0
0
0
0
0
0
0
0
0
0
0
0
0
0
0
0
0
0
0
0
0
0
0
0
0
0
0
0
0
0
0
0
0
0
0
0
0
0
0
0
0
0
0
0
0
0
0
0
-2.60543e-168
2.93776e-155
-7.74263e-149
8.83319e-146
1.97668e-143
2.04703e-141
1.36022e-139
6.50971e-138
2.35363e-136
6.43446e-135
1.22028e-133
8.05027e-133
-5.22177e-131
-2.96896e-129
-1.01211e-127
-2.73585e-126
-6.33853e-125
-1.30379e-123
-2.42924e-122
-4.15413e-121
-6.58142e-120
-9.72952e-119
-1.34978e-117
-1.76545e-116
-2.18558e-115
-2.56954e-114
-2.87729e-113
-3.07653e-112
-3.14828e-111
-3.0896e-110
-2.913e-109
-2.64307e-108
-2.31131e-107
-1.9507e-106
-1.59093e-105
-1.25529e-104
-9.59257e-104
-7.10646e-103
-5.10854e-102
-3.56642e-101
-2.41993e-100
-1.59706e-99
-1.02585e-98
-6.41742e-98
-3.91201e-97
-2.32505e-96
-1.34793e-95
-7.62591e-95
-4.2119e-94
-2.27182e-93
-1.19703e-92
-6.16281e-92
-3.10076e-91
-1.52484e-90
-7.32926e-90
-3.44311e-89
-1.5806e-88
-7.08824e-88
-3.10374e-87
-1.326e-86
-5.52148e-86
-2.23747e-85
-8.80429e-85
-3.35316e-84
-1.22994e-83
-4.3105e-83
-1.42365e-82
-4.31399e-82
-1.12579e-81
-2.01868e-81
1.77583e-81
4.45293e-80
3.14186e-79
1.728e-78
8.45245e-78
3.84744e-77
1.66452e-76
6.92449e-76
2.78978e-75
1.09368e-74
4.18583e-74
1.56785e-73
5.75785e-73
2.07626e-72
7.35997e-72
2.56721e-71
8.81844e-71
2.98514e-70
9.96422e-70
3.28137e-69
1.06661e-68
3.42353e-68
1.0855e-67
3.40112e-67
1.05339e-66
3.226e-66
9.77155e-66
2.92818e-65
8.68309e-65
2.54854e-64
7.40526e-64
2.13064e-63
6.07137e-63
1.71375e-62
4.79255e-62
1.32806e-61
3.64728e-61
9.92854e-61
2.67935e-60
7.16903e-60
1.90211e-59
5.00503e-59
1.30626e-58
3.3818e-58
8.68585e-58
2.21344e-57
5.597e-57
1.40448e-56
3.49777e-56
8.64598e-56
2.1214e-55
5.16714e-55
1.24948e-54
2.99977e-54
7.15088e-54
1.69266e-53
3.97877e-53
9.28794e-53
2.15331e-52
4.95835e-52
1.13405e-51
2.5764e-51
5.81439e-51
1.30354e-50
2.90332e-50
6.42445e-50
1.41243e-49
3.08535e-49
6.69682e-49
1.44437e-48
3.09563e-48
6.59328e-48
1.39557e-47
2.93571e-47
6.13772e-47
1.27541e-46
2.63424e-46
5.40805e-46
1.10363e-45
2.23882e-45
4.51485e-45
9.05132e-45
1.80402e-44
3.57475e-44
7.04276e-44
1.37958e-43
2.68704e-43
5.20403e-43
1.00221e-42
1.91932e-42
3.65528e-42
6.923e-42
1.30402e-41
2.44288e-41
4.55164e-41
8.43517e-41
1.55488e-40
2.85095e-40
5.19985e-40
9.43437e-40
1.70283e-39
3.05762e-39
5.46214e-39
9.70789e-39
1.71666e-38
3.02035e-38
5.2876e-38
9.21094e-38
1.59665e-37
2.75416e-37
4.72782e-37
8.07681e-37
1.37322e-36
2.32371e-36
3.91363e-36
6.5607e-36
1.09474e-35
1.81835e-35
3.00655e-35
4.94885e-35
8.10963e-35
1.32306e-34
2.1491e-34
3.4758e-34
5.5975e-34
8.97628e-34
1.43345e-33
2.2797e-33
3.6108e-33
5.69619e-33
8.95051e-33
1.40094e-32
2.18437e-32
3.39309e-32
5.25122e-32
8.09747e-32
1.24421e-31
1.90516e-31
2.9073e-31
4.42189e-31
6.70381e-31
1.01314e-30
1.52646e-30
2.29306e-30
3.43473e-30
5.1305e-30
7.64289e-30
1.1356e-29
1.68308e-29
2.48846e-29
3.67069e-29
5.40243e-29
7.93401e-29
1.16276e-28
1.70066e-28
2.48257e-28
3.61716e-28
5.26066e-28
7.63731e-28
1.10684e-27
1.60134e-27
2.31286e-27
3.33494e-27
4.80065e-27
6.89897e-27
9.89776e-27
1.41759e-26
2.0268e-26
2.89274e-26
4.12123e-26
5.86068e-26
8.31865e-26
1.17848e-25
1.66622e-25
2.35107e-25
3.31051e-25
4.65161e-25
6.52177e-25
9.12351e-25
1.27342e-24
1.77328e-24
2.46353e-24
3.41426e-24
4.72039e-24
6.5101e-24
8.95597e-24
1.22897e-23
1.68214e-23
2.29652e-23
3.1272e-23
4.24731e-23
5.75363e-23
7.77386e-23
1.04761e-22
1.40808e-22
1.88766e-22
2.52404e-22
3.36626e-22
4.47802e-22
5.94179e-22
7.86417e-22
1.03825e-21
1.36735e-21
1.79638e-21
2.35435e-21
3.07833e-21
4.01555e-21
5.22615e-21
6.78642e-21
8.79312e-21
1.13686e-20
1.46674e-20
1.88844e-20
2.42648e-20
3.11168e-20
3.98269e-20
5.08796e-20
6.48806e-20
8.25865e-20
1.04941e-19
1.33118e-19
1.68579e-19
2.13137e-19
2.69037e-19
3.39062e-19
4.26643e-19
5.36018e-19
6.72401e-19
8.42198e-19
1.05327e-18
1.31524e-18
1.63987e-18
2.0415e-18
2.53757e-18
3.14929e-18
3.90234e-18
4.82776e-18
5.96304e-18
7.35327e-18
9.05262e-18
1.1126e-17
1.3651e-17
1.67202e-17
2.04437e-17
2.49524e-17
3.04011e-17
3.69731e-17
4.48844e-17
5.43896e-17
6.57877e-17
7.94294e-17
9.57258e-17
1.15158e-16
1.38286e-16
1.65767e-16
1.98366e-16
2.36974e-16
2.82633e-16
3.36557e-16
4.00167e-16
4.75126e-16
5.63387e-16
6.6725e-16
7.89439e-16
9.33193e-16
1.10239e-15
1.30173e-15
1.53692e-15
1.81506e-15
2.145e-15
2.53811e-15
3.00919e-15
3.57815e-15
4.27264e-15
5.13273e-15
6.21965e-15
7.63269e-15
9.54191e-15
1.22478e-14
1.62805e-14
2.25545e-14
3.26062e-14
4.89678e-14
7.576e-14
1.19612e-13
1.91064e-13
3.06646e-13
4.9194e-13
7.86041e-13
1.24815e-12
1.96766e-12
3.08067e-12
4.79945e-12
7.47007e-12
1.16921e-11
1.85722e-11
3.0254e-11
5.09902e-11
8.9239e-11
1.61638e-10
3.00336e-10
5.66155e-10
1.07167e-09
2.02074e-09
3.77473e-09
6.9613e-09
1.26496e-08
2.26274e-08
3.98315e-08
6.90061e-08
1.17693e-07
1.97696e-07
3.27221e-07
5.33952e-07
8.59409e-07
1.36504e-06
2.14066e-06
3.31584e-06
5.07537e-06
7.67962e-06
1.14913e-05
1.70102e-05
2.4917e-05
3.61295e-05
5.18718e-05
7.37598e-05
0.000103905
0.00014504
0.000200663
0.000275213
0.000374267
0.000504762
0.000675252
0.000896175
0.00118016
0.00154234
0.00200067
0.00257628
0.00329376
0.0041815
0.00527196
0.00660185
0.00821236
0.0101492
0.0124624
0.0152067
0.0184407
0.0222267
0.0266301
0.0317188
0.0375623
0.0442304
0.0517926
0.0603162
0.0698654
0.0804995
0.0922716
0.105227
0.119403
0.134824
0.151504
0.169445
0.188635
0.209047
0.23064
0.253357
0.27713
0.301873
0.327492
0.353877
0.38091
0.408463
0.436404
0.464593
0.492889
0.52115
0.549236
0.577011
0.604343
0.631108
0.657192
0.68249
0.706909
0.730367
0.752797
0.774142
0.794362
0.813427
0.831321
0.848038
0.863586
0.877981
0.891249
0.903423
0.914544
0.924659
0.933817
0.942074
0.949486
0.95611
0.962005
0.967229
0.971838
0.975888
0.979431
0.982518
0.985196
0.987509
0.9895
0.991206
0.992662
0.993899
0.994946
0.995828
0.996569
0.997188
0.997703
0.99813
0.998482
0.99877
0.999005
0.999194
0.999344
0.999462
0.99955
0.999611
0.999664
0.999669
0.999652
0.999609
0.999535
0.999425
0.99927
0.999062
0.998788
0.998433
0.997981
0.99741
0.996696
0.995811
0.994722
0.993394
0.991784
0.989847
0.987534
0.98479
0.981555
0.977768
0.973364
0.968274
0.962429
0.955759
0.948195
0.939669
0.930117
0.919481
0.907706
0.894748
0.88057
0.865147
0.848464
0.830521
0.811329
0.790916
0.769322
0.746604
0.722831
0.698088
0.67247
0.646086
0.619055
0.591504
0.563566
0.53538
0.507088
0.47883
0.450748
0.422978
0.39565
0.368889
0.342809
0.317516
0.293101
0.269647
0.247221
0.225878
0.205661
0.186599
0.168708
0.151992
0.136446
0.122052
0.108785
0.0966106
0.0854893
0.0753742
0.0662147
0.0579567
0.0505438
0.0439181
0.0380215
0.0327962
0.0281855
0.0241342
0.0205895
0.017501
0.0148213
0.0125059
0.0105135
0.00880618
0.00734908
0.00611063
0.00506229
0.00417848
0.00343637
0.00281575
0.00229878
0.00186998
0.00151538
0.00122418
0.000983781
0.000791707
0.000624674
0.000516824
0.000359713
)
;

boundaryField
{
    sides
    {
        type            inletOutlet;
        inletValue      uniform 0;
        value           nonuniform List<scalar> 2(0.000359713 0);
    }
    empty
    {
        type            empty;
    }
}


// ************************************************************************* //
