/*--------------------------------*- C++ -*----------------------------------*\
| =========                 |                                                 |
| \\      /  F ield         | OpenFOAM: The Open Source CFD Toolbox           |
|  \\    /   O peration     | Version:  v2012                                 |
|   \\  /    A nd           | Website:  www.openfoam.com                      |
|    \\/     M anipulation  |                                                 |
\*---------------------------------------------------------------------------*/
FoamFile
{
    version     2.0;
    format      ascii;
    class       volScalarField;
    location    "3";
    object      T;
}
// * * * * * * * * * * * * * * * * * * * * * * * * * * * * * * * * * * * * * //

dimensions      [0 0 0 1 0 0 0];


internalField   nonuniform List<scalar> 
1000
(
0.0174546
-0.0185999
0.0177478
-0.0189392
0.01761
-0.0186166
0.0169615
-0.0176355
0.0157847
-0.0160535
0.0141154
-0.0139806
0.0120463
-0.0115705
0.00971975
-0.0090067
0.00731072
-0.00648267
0.00500326
-0.00417961
0.00296427
-0.00224395
0.00131973
-0.000769189
0.000137854
0.000214174
-0.000577362
0.000738258
-0.00088102
0.000886665
-0.000871772
0.000774858
-0.000669448
0.000526362
-0.000390966
0.000250082
-0.000129958
2.37058e-05
5.56535e-05
-0.000113648
0.000146104
-0.000158893
0.000153059
-0.000134623
0.000106837
-7.49069e-05
4.20473e-05
-1.17485e-05
-1.41164e-05
3.41341e-05
-4.81346e-05
5.65065e-05
-6.04121e-05
6.13261e-05
-6.10098e-05
6.12071e-05
-6.35746e-05
6.95259e-05
-8.0216e-05
9.65178e-05
-0.000119081
0.000148398
-0.000184908
0.000229094
-0.000281583
0.000343221
-0.000415131
0.000498742
-0.000595792
0.000708309
-0.000838576
0.000989079
-0.00116246
0.00136145
-0.00158884
0.00184741
-0.00213988
0.00246887
-0.00283685
0.00324604
-0.00369838
0.0041954
-0.00473815
0.00532704
-0.00596177
0.00664114
-0.00736299
0.008124
-0.00891968
0.00974421
-0.0105904
0.0114499
-0.0123126
0.0131676
-0.0140026
0.0148043
-0.0155589
0.0162518
-0.0168686
0.0173948
-0.0178169
0.0181221
-0.0182993
0.0183395
-0.0182358
0.0179842
-0.0175838
0.0170369
-0.0163493
0.0155303
-0.0145925
0.0135518
-0.0124265
0.0112376
-0.0100077
0.00876032
-0.00751927
0.00630791
-0.00514829
0.00406038
-0.00306144
0.00216545
-0.00138264
0.000719209
-0.000177292
-0.000245015
0.000553364
-0.000756724
0.000866809
-0.000897391
0.000863547
-0.000780878
0.000664746
-0.000529572
0.000388234
-0.000251603
0.000128216
-2.41356e-05
-5.70518e-05
0.000114068
-0.000147656
0.000160196
-0.000155252
0.000137103
-0.000110281
7.916e-05
-4.76165e-05
1.87827e-05
5.09829e-06
-2.27164e-05
3.36473e-05
-3.82297e-05
3.73901e-05
-3.2438e-05
2.48571e-05
-1.61134e-05
7.49835e-06
-1.75591e-08
-5.6691e-06
9.25764e-06
-1.07669e-05
1.0473e-05
-8.82428e-06
6.35045e-06
-3.5777e-06
9.60027e-07
1.16743e-06
-2.61041e-06
3.31424e-06
-3.34342e-06
2.84808e-06
-2.02455e-06
1.07656e-06
-1.82798e-07
-5.25536e-07
9.7555e-07
-1.15223e-06
1.08891e-06
-8.51738e-07
5.21836e-07
-1.78441e-07
-1.14321e-07
3.15443e-07
-4.09435e-07
4.03738e-07
-3.22535e-07
1.9876e-07
-6.6097e-08
-4.75571e-08
1.24213e-07
-1.57175e-07
1.49954e-07
-1.13386e-07
6.18807e-08
-9.70894e-09
-3.19167e-08
5.65336e-08
-6.2776e-08
5.35687e-08
-3.45671e-08
1.23251e-08
7.354e-09
-2.05579e-08
2.5743e-08
-2.35743e-08
1.62899e-08
-6.8336e-09
-1.99809e-09
8.19389e-09
-1.08436e-08
1.01201e-08
-6.99876e-09
2.83795e-09
1.0485e-09
-3.71662e-09
4.75422e-09
-4.27097e-09
2.75447e-09
-8.57364e-10
-8.14068e-10
1.85376e-09
-2.12246e-09
1.72702e-09
-9.36058e-10
6.85342e-11
6.07885e-10
-9.42059e-10
9.17078e-10
-6.25309e-10
2.16853e-10
1.57864e-10
-3.93203e-10
4.50203e-10
-3.53542e-10
1.69711e-10
2.29519e-11
-1.61408e-10
2.14353e-10
-1.8505e-10
1.02521e-10
-6.37876e-12
-6.84637e-11
1.02202e-10
-9.33062e-11
5.49062e-11
-7.08012e-12
-3.15394e-11
4.97932e-11
-4.61735e-11
2.71481e-11
-3.11324e-12
-1.61813e-11
2.49337e-11
-2.24917e-11
1.2407e-11
-2.03467e-13
-9.10306e-12
1.27353e-11
-1.06815e-11
5.07374e-12
1.10842e-12
-5.35506e-12
6.49091e-12
-4.81201e-12
1.6511e-12
1.39596e-12
-3.14162e-12
3.20228e-12
-1.95119e-12
2.12362e-13
1.19146e-12
-1.76001e-12
1.45997e-12
-6.21274e-13
-2.738e-13
8.35472e-13
-9.0315e-13
5.67023e-13
-6.70515e-14
-3.39618e-13
4.99161e-13
-3.98806e-13
1.46864e-13
1.10758e-13
-2.54656e-13
2.50313e-13
-1.3157e-13
-1.61449e-14
1.22238e-13
-1.43204e-13
9.40561e-14
-1.00621e-14
-5.6659e-14
8.26225e-14
-6.16167e-14
1.79641e-14
2.42941e-14
-4.32685e-14
3.62335e-14
-1.26562e-14
-1.24067e-14
2.48423e-14
-2.33789e-14
9.50236e-15
3.7831e-15
-1.3308e-14
1.13986e-14
-5.65321e-15
-3.95975e-15
7.6103e-15
-8.56657e-15
3.38635e-15
3.91927e-16
-4.15815e-15
3.10408e-15
-1.47332e-15
-2.00779e-15
2.90428e-15
-3.297e-15
1.21579e-15
-2.48927e-16
-1.22115e-15
2.83746e-16
-1.63119e-16
-1.53239e-15
9.69694e-16
-1.65243e-15
4.09598e-18
-5.19254e-16
-8.00943e-16
-4.28838e-16
-4.00602e-16
-8.17632e-16
-2.31068e-16
-4.1258e-16
-6.77853e-16
2.44724e-16
-8.28637e-16
4.65981e-16
-6.22313e-16
6.52956e-16
-6.21688e-16
1.08479e-15
-7.67593e-16
1.42334e-15
-7.61744e-16
1.54783e-15
-7.22951e-16
1.66692e-15
-8.02872e-16
1.79485e-15
-8.87914e-16
1.81665e-15
-9.08272e-16
1.78037e-15
-9.34164e-16
1.77017e-15
-9.67675e-16
1.76359e-15
-9.53596e-16
1.74649e-15
-9.04612e-16
1.75678e-15
-8.55792e-16
1.79897e-15
-8.06452e-16
1.84918e-15
-7.67113e-16
1.90717e-15
-7.72784e-16
1.97724e-15
-8.43812e-16
2.04859e-15
-9.86713e-16
2.11774e-15
-1.21011e-15
2.19168e-15
-1.5116e-15
2.27208e-15
-1.87129e-15
2.35801e-15
-2.26358e-15
2.45084e-15
-2.66006e-15
2.54739e-15
-3.02843e-15
2.63873e-15
-3.33998e-15
2.715e-15
-3.57439e-15
2.76511e-15
-3.71873e-15
2.7765e-15
-3.76803e-15
2.73834e-15
-3.72544e-15
2.64265e-15
-3.59892e-15
2.48419e-15
-3.39893e-15
2.26194e-15
-3.13732e-15
1.97976e-15
-2.82584e-15
1.64572e-15
-2.47528e-15
1.27175e-15
-2.0955e-15
8.72427e-16
-1.69491e-15
4.63025e-16
-1.27999e-15
5.76733e-17
-8.55381e-16
-3.32048e-16
-4.24337e-16
-6.98073e-16
1.02571e-17
-1.03585e-15
4.44503e-16
-1.34361e-15
8.72553e-16
-1.62128e-15
1.28658e-15
-1.86944e-15
1.67768e-15
-2.08849e-15
2.03756e-15
-2.27846e-15
2.36029e-15
-2.43921e-15
2.64347e-15
-2.57093e-15
2.88838e-15
-2.67469e-15
3.09925e-15
-2.75281e-15
3.28179e-15
-2.80884e-15
3.44158e-15
-2.84726e-15
3.58287e-15
-2.87291e-15
3.70785e-15
-2.89028e-15
3.81645e-15
-2.90269e-15
3.90642e-15
-2.91154e-15
3.97351e-15
-2.91578e-15
4.01178e-15
-2.9118e-15
4.01423e-15
-2.89401e-15
3.97402e-15
-2.85607e-15
3.88594e-15
-2.79228e-15
3.74771e-15
-2.69873e-15
3.56041e-15
-2.57349e-15
3.32763e-15
-2.4159e-15
3.0537e-15
-2.22557e-15
2.74194e-15
-2.00181e-15
2.39408e-15
-1.74422e-15
2.01129e-15
-1.45438e-15
1.59665e-15
-1.13788e-15
1.15783e-15
-8.05606e-16
7.08553e-16
-4.73337e-16
2.67747e-16
-1.59102e-16
-1.43785e-16
1.20934e-16
-5.08174e-16
3.56781e-16
-8.14996e-16
5.47326e-16
-1.06356e-15
7.00103e-16
-1.26189e-15
8.27981e-16
-1.42265e-15
9.44041e-16
-1.55805e-15
1.05684e-15
-1.67572e-15
1.16814e-15
-1.77753e-15
1.27397e-15
-1.86152e-15
1.3682e-15
-1.92545e-15
1.44685e-15
-1.97012e-15
1.51083e-15
-2.00045e-15
1.566e-15
-2.02406e-15
1.62075e-15
-2.04802e-15
1.68216e-15
-2.07535e-15
1.75256e-15
-2.1029e-15
1.8278e-15
-2.12143e-15
1.89748e-15
-2.11757e-15
1.94705e-15
-2.07701e-15
1.96069e-15
-1.98765e-15
1.92423e-15
-1.84191e-15
1.82748e-15
-1.63796e-15
1.6658e-15
-1.37981e-15
1.44078e-15
-1.07649e-15
1.15996e-15
-7.40484e-16
8.3558e-16
-3.85559e-16
4.8242e-16
-2.45119e-17
1.15401e-16
3.32693e-16
-2.52629e-16
6.79887e-16
-6.12252e-16
1.01452e-15
-9.57789e-16
1.3365e-15
-1.28661e-15
1.64636e-15
-1.59774e-15
1.94321e-15
-1.88995e-15
2.22291e-15
-2.15992e-15
2.47688e-15
-2.40105e-15
2.69239e-15
-2.60378e-15
2.85488e-15
-2.75789e-15
2.95183e-15
-2.85576e-15
2.97684e-15
-2.89534e-15
2.93224e-15
-2.8815e-15
2.82942e-15
-2.82543e-15
2.68697e-15
-2.74247e-15
2.52695e-15
-2.64869e-15
2.3703e-15
-2.55707e-15
2.23212e-15
-2.47415e-15
2.11821e-15
-2.39836e-15
2.02433e-15
-2.32119e-15
1.93892e-15
-2.23162e-15
1.84924e-15
-2.12257e-15
1.74814e-15
-1.99556e-15
1.63692e-15
-1.8594e-15
1.52121e-15
-1.72245e-15
1.40264e-15
-1.58435e-15
1.27361e-15
-1.43465e-15
1.1206e-15
-1.26004e-15
9.33655e-16
-1.05429e-15
7.14086e-16
-8.22951e-16
4.74664e-16
-5.80098e-16
2.32983e-16
-3.40467e-16
3.11795e-18
-1.12442e-16
-2.09465e-16
1.04081e-16
-4.06876e-16
3.13463e-16
-5.91881e-16
5.1587e-16
-7.59453e-16
7.00784e-16
-8.93861e-16
8.48787e-16
-9.752e-16
9.41736e-16
-9.91269e-16
9.73878e-16
-9.45682e-16
9.55377e-16
-8.56215e-16
9.06052e-16
-7.45104e-16
8.44198e-16
-6.28018e-16
7.77628e-16
-5.0812e-16
7.01767e-16
-3.78086e-16
6.05443e-16
-2.28507e-16
4.80586e-16
-5.69308e-17
3.28799e-16
1.2962e-16
1.59069e-16
3.21364e-16
-2.17626e-17
5.15398e-16
-2.15748e-16
7.16977e-16
-4.28616e-16
9.28781e-16
-6.56638e-16
1.13957e-15
-8.81063e-16
1.32647e-15
-1.07741e-15
1.46783e-15
-1.22707e-15
1.55003e-15
-1.31776e-15
1.56546e-15
-1.34173e-15
1.52003e-15
-1.30461e-15
1.45877e-15
-1.22154e-15
1.50015e-15
-1.02974e-15
1.93515e-15
-2.7425e-16
3.71205e-15
2.93944e-15
1.04247e-14
1.57319e-14
3.56496e-14
6.42475e-14
1.29079e-13
2.42527e-13
4.67426e-13
8.80452e-13
1.66238e-12
3.10454e-12
5.77431e-12
1.0657e-11
1.95522e-11
3.56224e-11
6.4479e-11
1.15912e-10
2.06963e-10
3.6698e-10
6.46206e-10
1.12989e-09
1.96163e-09
3.38127e-09
5.78624e-09
9.82968e-09
1.6576e-08
2.77453e-08
4.60936e-08
7.59987e-08
1.24354e-07
2.01918e-07
3.25334e-07
5.2011e-07
8.24993e-07
1.29829e-06
2.02694e-06
3.13932e-06
4.82322e-06
7.35068e-06
1.1112e-05
1.66616e-05
2.47792e-05
3.65507e-05
5.34724e-05
7.75861e-05
0.000111649
0.000159344
0.000225541
0.000316614
0.000440807
0.000608679
0.000833597
0.0011323
0.00152552
0.00203864
0.00270237
0.00355343
0.00463525
0.00599849
0.00770159
0.00981106
0.0124016
0.0155559
0.0193643
0.0239241
0.029338
0.0357128
0.0431577
0.0517815
0.0616903
0.0729842
0.0857547
0.100081
0.116028
0.13364
0.152944
0.17394
0.196606
0.220891
0.24672
0.27399
0.302574
0.332319
0.363053
0.394588
0.426719
0.459231
0.491907
0.524526
0.55687
0.588731
0.619911
0.650228
0.679518
0.707635
0.734459
0.75989
0.783853
0.806296
0.827189
0.846524
0.864312
0.88058
0.895375
0.908751
0.920778
0.931531
0.941091
0.949545
0.95698
0.963483
0.969142
0.974041
0.978258
0.981871
0.98495
0.98756
0.989763
0.991612
0.993157
0.994441
0.995503
0.996378
0.997095
0.99768
0.998155
0.998538
0.998847
0.999094
0.999291
0.999448
0.999571
0.999668
0.999744
0.999803
0.999849
0.999883
0.999909
0.999928
0.99994
0.999947
0.999948
0.999943
0.999931
0.999911
0.99988
0.999835
0.99977
0.99968
0.999557
0.99939
0.999165
0.998867
0.998474
0.997961
0.997297
0.996446
0.995365
0.994001
0.992298
0.990189
0.987598
0.984444
0.980636
0.976076
0.970662
0.964287
0.956842
0.948218
0.93831
0.927016
0.914245
0.899919
0.883972
0.86636
0.847056
0.82606
0.803394
0.779109
0.75328
0.72601
0.697426
0.667681
0.636947
0.605412
0.573281
0.540769
0.508093
0.475474
0.44313
0.411269
0.380089
0.349772
0.320482
0.292365
0.265541
0.24011
0.216147
0.193704
0.172811
0.153476
0.135688
0.11942
0.104625
0.0912487
0.079222
0.0684694
0.0589091
0.0504552
0.0430203
0.0365166
0.0308576
0.0259595
0.021742
0.0181293
0.0150504
0.0124397
0.0102371
0.00838795
0.0068432
0.005559
0.00449654
0.00362172
0.0029048
0.00232004
0.00184527
0.00146159
0.00115292
0.000905726
0.00070864
0.000552204
0.000428577
0.000331303
0.000255094
0.000195644
0.000149463
0.000113741
8.6223e-05
6.51128e-05
4.89844e-05
3.6712e-05
2.74113e-05
2.03907e-05
1.51123e-05
1.11591e-05
8.21007e-06
6.01852e-06
4.39613e-06
3.19963e-06
2.32053e-06
1.67705e-06
1.20777e-06
8.66792e-07
6.19936e-07
4.41866e-07
3.13876e-07
2.22206e-07
1.56783e-07
1.10254e-07
7.72772e-08
5.39861e-08
3.7592e-08
2.60916e-08
1.80513e-08
1.24488e-08
8.55792e-09
5.86461e-09
4.00635e-09
2.7284e-09
1.85236e-09
1.25374e-09
8.45996e-10
5.69132e-10
3.81725e-10
2.55265e-10
1.70193e-10
1.13139e-10
7.49912e-11
4.95615e-11
3.26605e-11
2.14612e-11
1.4062e-11
9.1877e-12
5.9861e-12
3.88925e-12
2.51988e-12
1.62815e-12
1.0491e-12
6.74147e-13
4.32031e-13
2.76125e-13
1.76009e-13
1.11894e-13
7.09469e-14
4.48661e-14
2.82989e-14
1.78031e-14
1.11712e-14
6.99187e-15
4.36496e-15
2.71812e-15
1.68835e-15
1.0461e-15
6.46552e-16
3.98622e-16
2.45162e-16
1.50413e-16
9.20581e-17
5.62073e-17
3.4236e-17
2.08035e-17
1.26114e-17
7.62722e-18
4.60206e-18
2.77031e-18
1.66379e-18
9.96941e-19
5.96001e-19
3.55498e-19
2.11565e-19
1.25625e-19
7.44281e-20
4.39979e-20
2.59518e-20
1.52738e-20
8.96971e-21
5.25617e-21
3.07334e-21
1.79327e-21
1.04396e-21
6.06704e-22
3.51471e-22
2.03747e-22
1.17017e-22
6.8338e-23
3.79085e-23
2.38221e-23
1.0527e-23
)
;

boundaryField
{
    sides
    {
        type            inletOutlet;
        inletValue      uniform 0;
        value           nonuniform List<scalar> 2(1.0527e-23 0);
    }
    empty
    {
        type            empty;
    }
}


// ************************************************************************* //
