-4.995 	348.432 	4.11362e-12 	100000
-4.994 	348.432 	4.11362e-12 	100000
-4.993 	348.432 	4.11362e-12 	100000
-4.992 	348.432 	4.11362e-12 	100000
-4.991 	348.432 	4.11362e-12 	100000
-4.99 	348.432 	4.11362e-12 	100000
-4.98901 	348.432 	4.11362e-12 	100000
-4.98801 	348.432 	4.11362e-12 	100000
-4.98701 	348.432 	4.11362e-12 	100000
-4.98601 	348.432 	4.11362e-12 	100000
-4.98501 	348.432 	4.11362e-12 	100000
-4.98401 	348.432 	4.11362e-12 	100000
-4.98301 	348.432 	4.11362e-12 	100000
-4.98201 	348.432 	4.11362e-12 	100000
-4.98101 	348.432 	4.11362e-12 	100000
-4.98001 	348.432 	4.11362e-12 	100000
-4.97901 	348.432 	4.11362e-12 	100000
-4.97802 	348.432 	4.11362e-12 	100000
-4.97702 	348.432 	4.11362e-12 	100000
-4.97602 	348.432 	4.11362e-12 	100000
-4.97502 	348.432 	4.11362e-12 	100000
-4.97402 	348.432 	4.11362e-12 	100000
-4.97302 	348.432 	4.11362e-12 	100000
-4.97202 	348.432 	4.11362e-12 	100000
-4.97102 	348.432 	4.11362e-12 	100000
-4.97002 	348.432 	4.11362e-12 	100000
-4.96902 	348.432 	4.11362e-12 	100000
-4.96802 	348.432 	4.11362e-12 	100000
-4.96703 	348.432 	4.11362e-12 	100000
-4.96603 	348.432 	4.11362e-12 	100000
-4.96503 	348.432 	4.11362e-12 	100000
-4.96403 	348.432 	4.11362e-12 	100000
-4.96303 	348.432 	4.11362e-12 	100000
-4.96203 	348.432 	4.11362e-12 	100000
-4.96103 	348.432 	4.11362e-12 	100000
-4.96003 	348.432 	4.11362e-12 	100000
-4.95903 	348.432 	4.11362e-12 	100000
-4.95803 	348.432 	4.11362e-12 	100000
-4.95703 	348.432 	4.11362e-12 	100000
-4.95604 	348.432 	4.11362e-12 	100000
-4.95504 	348.432 	4.11362e-12 	100000
-4.95404 	348.432 	4.11362e-12 	100000
-4.95304 	348.432 	4.11362e-12 	100000
-4.95204 	348.432 	4.11362e-12 	100000
-4.95104 	348.432 	4.11362e-12 	100000
-4.95004 	348.432 	4.11362e-12 	100000
-4.94904 	348.432 	4.12216e-12 	100000
-4.94804 	348.432 	4.13107e-12 	100000
-4.94704 	348.432 	4.13997e-12 	100000
-4.94604 	348.432 	4.14888e-12 	100000
-4.94505 	348.432 	4.15778e-12 	100000
-4.94405 	348.432 	4.16669e-12 	100000
-4.94305 	348.432 	4.17559e-12 	100000
-4.94205 	348.432 	4.1845e-12 	100000
-4.94105 	348.432 	4.1934e-12 	100000
-4.94005 	348.432 	4.20231e-12 	100000
-4.93905 	348.432 	4.21121e-12 	100000
-4.93805 	348.432 	4.22012e-12 	100000
-4.93705 	348.432 	4.22902e-12 	100000
-4.93605 	348.432 	4.23793e-12 	100000
-4.93505 	348.432 	4.24683e-12 	100000
-4.93405 	348.432 	4.25574e-12 	100000
-4.93306 	348.432 	4.26464e-12 	100000
-4.93206 	348.432 	4.27354e-12 	100000
-4.93106 	348.432 	4.28245e-12 	100000
-4.93006 	348.432 	4.29135e-12 	100000
-4.92906 	348.432 	4.30026e-12 	100000
-4.92806 	348.432 	4.30916e-12 	100000
-4.92706 	348.432 	4.31807e-12 	100000
-4.92606 	348.432 	4.32697e-12 	100000
-4.92506 	348.432 	4.33588e-12 	100000
-4.92406 	348.432 	4.34478e-12 	100000
-4.92306 	348.432 	4.35369e-12 	100000
-4.92207 	348.432 	4.36259e-12 	100000
-4.92107 	348.432 	4.3715e-12 	100000
-4.92007 	348.432 	4.3804e-12 	100000
-4.91907 	348.432 	4.38931e-12 	100000
-4.91807 	348.432 	4.39821e-12 	100000
-4.91707 	348.432 	4.40712e-12 	100000
-4.91607 	348.432 	4.41602e-12 	100000
-4.91507 	348.432 	4.42493e-12 	100000
-4.91407 	348.432 	4.43383e-12 	100000
-4.91307 	348.432 	4.44274e-12 	100000
-4.91207 	348.432 	4.45164e-12 	100000
-4.91108 	348.432 	4.46055e-12 	100000
-4.91008 	348.432 	4.46945e-12 	100000
-4.90908 	348.432 	4.47835e-12 	100000
-4.90808 	348.432 	4.48726e-12 	100000
-4.90708 	348.432 	4.49616e-12 	100000
-4.90608 	348.432 	4.50507e-12 	100000
-4.90508 	348.432 	4.51397e-12 	100000
-4.90408 	348.432 	4.52288e-12 	100000
-4.90308 	348.432 	4.53178e-12 	100000
-4.90208 	348.432 	4.54069e-12 	100000
-4.90108 	348.432 	4.54959e-12 	100000
-4.90009 	348.432 	4.5585e-12 	100000
-4.89909 	348.432 	4.5674e-12 	100000
-4.89809 	348.432 	4.57631e-12 	100000
-4.89709 	348.432 	4.58521e-12 	100000
-4.89609 	348.432 	4.59412e-12 	100000
-4.89509 	348.432 	4.60302e-12 	100000
-4.89409 	348.432 	4.61193e-12 	100000
-4.89309 	348.432 	4.62083e-12 	100000
-4.89209 	348.432 	4.62974e-12 	100000
-4.89109 	348.432 	4.63864e-12 	100000
-4.89009 	348.432 	4.64755e-12 	100000
-4.8891 	348.432 	4.65645e-12 	100000
-4.8881 	348.432 	4.66536e-12 	100000
-4.8871 	348.432 	4.67426e-12 	100000
-4.8861 	348.432 	4.68316e-12 	100000
-4.8851 	348.432 	4.69207e-12 	100000
-4.8841 	348.432 	4.70097e-12 	100000
-4.8831 	348.432 	4.70988e-12 	100000
-4.8821 	348.432 	4.71878e-12 	100000
-4.8811 	348.432 	4.72769e-12 	100000
-4.8801 	348.432 	4.73659e-12 	100000
-4.8791 	348.432 	4.7455e-12 	100000
-4.87811 	348.432 	4.7544e-12 	100000
-4.87711 	348.432 	4.76331e-12 	100000
-4.87611 	348.432 	4.77221e-12 	100000
-4.87511 	348.432 	4.78112e-12 	100000
-4.87411 	348.432 	4.79002e-12 	100000
-4.87311 	348.432 	4.79893e-12 	100000
-4.87211 	348.432 	4.80783e-12 	100000
-4.87111 	348.432 	4.81674e-12 	100000
-4.87011 	348.432 	4.82564e-12 	100000
-4.86911 	348.432 	4.83455e-12 	100000
-4.86811 	348.432 	4.84345e-12 	100000
-4.86712 	348.432 	4.85236e-12 	100000
-4.86612 	348.432 	4.86126e-12 	100000
-4.86512 	348.432 	4.87017e-12 	100000
-4.86412 	348.432 	4.87907e-12 	100000
-4.86312 	348.432 	4.88797e-12 	100000
-4.86212 	348.432 	4.89688e-12 	100000
-4.86112 	348.432 	4.90578e-12 	100000
-4.86012 	348.432 	4.91469e-12 	100000
-4.85912 	348.432 	4.92359e-12 	100000
-4.85812 	348.432 	4.9325e-12 	100000
-4.85712 	348.432 	4.9414e-12 	100000
-4.85613 	348.432 	4.95031e-12 	100000
-4.85513 	348.432 	4.95921e-12 	100000
-4.85413 	348.432 	4.96812e-12 	100000
-4.85313 	348.432 	4.97702e-12 	100000
-4.85213 	348.432 	4.98593e-12 	100000
-4.85113 	348.432 	4.99483e-12 	100000
-4.85013 	348.432 	5.00374e-12 	100000
-4.84913 	348.432 	5.00007e-12 	100000
-4.84813 	348.432 	4.99452e-12 	100000
-4.84713 	348.432 	4.98897e-12 	100000
-4.84613 	348.432 	4.98341e-12 	100000
-4.84514 	348.432 	4.97786e-12 	100000
-4.84414 	348.432 	4.97231e-12 	100000
-4.84314 	348.432 	4.96676e-12 	100000
-4.84214 	348.432 	4.9612e-12 	100000
-4.84114 	348.432 	4.95565e-12 	100000
-4.84014 	348.432 	4.9501e-12 	100000
-4.83914 	348.432 	4.94455e-12 	100000
-4.83814 	348.432 	4.93899e-12 	100000
-4.83714 	348.432 	4.93344e-12 	100000
-4.83614 	348.432 	4.92789e-12 	100000
-4.83514 	348.432 	4.92233e-12 	100000
-4.83414 	348.432 	4.91678e-12 	100000
-4.83315 	348.432 	4.91123e-12 	100000
-4.83215 	348.432 	4.90568e-12 	100000
-4.83115 	348.432 	4.90012e-12 	100000
-4.83015 	348.432 	4.89457e-12 	100000
-4.82915 	348.432 	4.88902e-12 	100000
-4.82815 	348.432 	4.88347e-12 	100000
-4.82715 	348.432 	4.87791e-12 	100000
-4.82615 	348.432 	4.87236e-12 	100000
-4.82515 	348.432 	4.86681e-12 	100000
-4.82415 	348.432 	4.86126e-12 	100000
-4.82315 	348.432 	4.8557e-12 	100000
-4.82216 	348.432 	4.85015e-12 	100000
-4.82116 	348.432 	4.8446e-12 	100000
-4.82016 	348.432 	4.83904e-12 	100000
-4.81916 	348.432 	4.83349e-12 	100000
-4.81816 	348.432 	4.82794e-12 	100000
-4.81716 	348.432 	4.82239e-12 	100000
-4.81616 	348.432 	4.81683e-12 	100000
-4.81516 	348.432 	4.81128e-12 	100000
-4.81416 	348.432 	4.80573e-12 	100000
-4.81316 	348.432 	4.80018e-12 	100000
-4.81216 	348.432 	4.79462e-12 	100000
-4.81117 	348.432 	4.78907e-12 	100000
-4.81017 	348.432 	4.78352e-12 	100000
-4.80917 	348.432 	4.77796e-12 	100000
-4.80817 	348.432 	4.77241e-12 	100000
-4.80717 	348.432 	4.76686e-12 	100000
-4.80617 	348.432 	4.76131e-12 	100000
-4.80517 	348.432 	4.75575e-12 	100000
-4.80417 	348.432 	4.7502e-12 	100000
-4.80317 	348.432 	4.74465e-12 	100000
-4.80217 	348.432 	4.7391e-12 	100000
-4.80117 	348.432 	4.73354e-12 	100000
-4.80018 	348.432 	4.72799e-12 	100000
-4.79918 	348.432 	4.72244e-12 	100000
-4.79818 	348.432 	4.71689e-12 	100000
-4.79718 	348.432 	4.71133e-12 	100000
-4.79618 	348.432 	4.70578e-12 	100000
-4.79518 	348.432 	4.70023e-12 	100000
-4.79418 	348.432 	4.69467e-12 	100000
-4.79318 	348.432 	4.68912e-12 	100000
-4.79218 	348.432 	4.68357e-12 	100000
-4.79118 	348.432 	4.67802e-12 	100000
-4.79018 	348.432 	4.67246e-12 	100000
-4.78919 	348.432 	4.66691e-12 	100000
-4.78819 	348.432 	4.66136e-12 	100000
-4.78719 	348.432 	4.65581e-12 	100000
-4.78619 	348.432 	4.65025e-12 	100000
-4.78519 	348.432 	4.6447e-12 	100000
-4.78419 	348.432 	4.63915e-12 	100000
-4.78319 	348.432 	4.63359e-12 	100000
-4.78219 	348.432 	4.62804e-12 	100000
-4.78119 	348.432 	4.62249e-12 	100000
-4.78019 	348.432 	4.61694e-12 	100000
-4.77919 	348.432 	4.61138e-12 	100000
-4.7782 	348.432 	4.60583e-12 	100000
-4.7772 	348.432 	4.60028e-12 	100000
-4.7762 	348.432 	4.59473e-12 	100000
-4.7752 	348.432 	4.58917e-12 	100000
-4.7742 	348.432 	4.58362e-12 	100000
-4.7732 	348.432 	4.57807e-12 	100000
-4.7722 	348.432 	4.57251e-12 	100000
-4.7712 	348.432 	4.56696e-12 	100000
-4.7702 	348.432 	4.56141e-12 	100000
-4.7692 	348.432 	4.55586e-12 	100000
-4.7682 	348.432 	4.5503e-12 	100000
-4.76721 	348.432 	4.54475e-12 	100000
-4.76621 	348.432 	4.5392e-12 	100000
-4.76521 	348.432 	4.53365e-12 	100000
-4.76421 	348.432 	4.52809e-12 	100000
-4.76321 	348.432 	4.52254e-12 	100000
-4.76221 	348.432 	4.51699e-12 	100000
-4.76121 	348.432 	4.51144e-12 	100000
-4.76021 	348.432 	4.50588e-12 	100000
-4.75921 	348.432 	4.50033e-12 	100000
-4.75821 	348.432 	4.49478e-12 	100000
-4.75721 	348.432 	4.48922e-12 	100000
-4.75622 	348.432 	4.48367e-12 	100000
-4.75522 	348.432 	4.47812e-12 	100000
-4.75422 	348.432 	4.47257e-12 	100000
-4.75322 	348.432 	4.46701e-12 	100000
-4.75222 	348.432 	4.46146e-12 	100000
-4.75122 	348.432 	4.45591e-12 	100000
-4.75022 	348.432 	4.45036e-12 	100000
-4.74922 	348.432 	4.45624e-12 	100000
-4.74822 	348.432 	4.46536e-12 	100000
-4.74722 	348.432 	4.47449e-12 	100000
-4.74622 	348.432 	4.48361e-12 	100000
-4.74523 	348.432 	4.49273e-12 	100000
-4.74423 	348.432 	4.50186e-12 	100000
-4.74323 	348.432 	4.51098e-12 	100000
-4.74223 	348.432 	4.5201e-12 	100000
-4.74123 	348.432 	4.52923e-12 	100000
-4.74023 	348.432 	4.53835e-12 	100000
-4.73923 	348.432 	4.54747e-12 	100000
-4.73823 	348.432 	4.5566e-12 	100000
-4.73723 	348.432 	4.56572e-12 	100000
-4.73623 	348.432 	4.57484e-12 	100000
-4.73523 	348.432 	4.58397e-12 	100000
-4.73423 	348.432 	4.59309e-12 	100000
-4.73324 	348.432 	4.60221e-12 	100000
-4.73224 	348.432 	4.61134e-12 	100000
-4.73124 	348.432 	4.62046e-12 	100000
-4.73024 	348.432 	4.62958e-12 	100000
-4.72924 	348.432 	4.63871e-12 	100000
-4.72824 	348.432 	4.64783e-12 	100000
-4.72724 	348.432 	4.65695e-12 	100000
-4.72624 	348.432 	4.66608e-12 	100000
-4.72524 	348.432 	4.6752e-12 	100000
-4.72424 	348.432 	4.68432e-12 	100000
-4.72324 	348.432 	4.69345e-12 	100000
-4.72225 	348.432 	4.70257e-12 	100000
-4.72125 	348.432 	4.71169e-12 	100000
-4.72025 	348.432 	4.72082e-12 	100000
-4.71925 	348.432 	4.72994e-12 	100000
-4.71825 	348.432 	4.73906e-12 	100000
-4.71725 	348.432 	4.74819e-12 	100000
-4.71625 	348.432 	4.75731e-12 	100000
-4.71525 	348.432 	4.76643e-12 	100000
-4.71425 	348.432 	4.77556e-12 	100000
-4.71325 	348.432 	4.78468e-12 	100000
-4.71225 	348.432 	4.7938e-12 	100000
-4.71126 	348.432 	4.80293e-12 	100000
-4.71026 	348.432 	4.81205e-12 	100000
-4.70926 	348.432 	4.82117e-12 	100000
-4.70826 	348.432 	4.8303e-12 	100000
-4.70726 	348.432 	4.83942e-12 	100000
-4.70626 	348.432 	4.84855e-12 	100000
-4.70526 	348.432 	4.85767e-12 	100000
-4.70426 	348.432 	4.86679e-12 	100000
-4.70326 	348.432 	4.87592e-12 	100000
-4.70226 	348.432 	4.88504e-12 	100000
-4.70126 	348.432 	4.89416e-12 	100000
-4.70027 	348.432 	4.90329e-12 	100000
-4.69927 	348.432 	4.91241e-12 	100000
-4.69827 	348.432 	4.92153e-12 	100000
-4.69727 	348.432 	4.93066e-12 	100000
-4.69627 	348.432 	4.93978e-12 	100000
-4.69527 	348.432 	4.9489e-12 	100000
-4.69427 	348.432 	4.95803e-12 	100000
-4.69327 	348.432 	4.96715e-12 	100000
-4.69227 	348.432 	4.97627e-12 	100000
-4.69127 	348.432 	4.9854e-12 	100000
-4.69027 	348.432 	4.99452e-12 	100000
-4.68928 	348.432 	5.00364e-12 	100000
-4.68828 	348.432 	5.01277e-12 	100000
-4.68728 	348.432 	5.02189e-12 	100000
-4.68628 	348.432 	5.03101e-12 	100000
-4.68528 	348.432 	5.04014e-12 	100000
-4.68428 	348.432 	5.04926e-12 	100000
-4.68328 	348.432 	5.05838e-12 	100000
-4.68228 	348.432 	5.06751e-12 	100000
-4.68128 	348.432 	5.07663e-12 	100000
-4.68028 	348.432 	5.08575e-12 	100000
-4.67928 	348.432 	5.09488e-12 	100000
-4.67829 	348.432 	5.104e-12 	100000
-4.67729 	348.432 	5.11312e-12 	100000
-4.67629 	348.432 	5.12225e-12 	100000
-4.67529 	348.432 	5.13137e-12 	100000
-4.67429 	348.432 	5.14049e-12 	100000
-4.67329 	348.432 	5.14962e-12 	100000
-4.67229 	348.432 	5.15874e-12 	100000
-4.67129 	348.432 	5.16786e-12 	100000
-4.67029 	348.432 	5.17699e-12 	100000
-4.66929 	348.432 	5.18611e-12 	100000
-4.66829 	348.432 	5.19523e-12 	100000
-4.6673 	348.432 	5.20436e-12 	100000
-4.6663 	348.432 	5.21348e-12 	100000
-4.6653 	348.432 	5.2226e-12 	100000
-4.6643 	348.432 	5.23173e-12 	100000
-4.6633 	348.432 	5.24085e-12 	100000
-4.6623 	348.432 	5.24997e-12 	100000
-4.6613 	348.432 	5.2591e-12 	100000
-4.6603 	348.432 	5.26822e-12 	100000
-4.6593 	348.432 	5.27734e-12 	100000
-4.6583 	348.432 	5.28647e-12 	100000
-4.6573 	348.432 	5.29559e-12 	100000
-4.65631 	348.432 	5.30471e-12 	100000
-4.65531 	348.432 	5.31384e-12 	100000
-4.65431 	348.432 	5.32296e-12 	100000
-4.65331 	348.432 	5.33208e-12 	100000
-4.65231 	348.432 	5.34121e-12 	100000
-4.65131 	348.432 	5.35033e-12 	100000
-4.65031 	348.432 	5.35945e-12 	100000
-4.64931 	348.432 	5.35375e-12 	100000
-4.64831 	348.432 	5.34136e-12 	100000
-4.64731 	348.432 	5.32898e-12 	100000
-4.64631 	348.432 	5.31659e-12 	100000
-4.64532 	348.432 	5.3042e-12 	100000
-4.64432 	348.432 	5.29181e-12 	100000
-4.64332 	348.432 	5.27942e-12 	100000
-4.64232 	348.432 	5.26704e-12 	100000
-4.64132 	348.432 	5.25465e-12 	100000
-4.64032 	348.432 	5.24226e-12 	100000
-4.63932 	348.432 	5.22987e-12 	100000
-4.63832 	348.432 	5.21748e-12 	100000
-4.63732 	348.432 	5.2051e-12 	100000
-4.63632 	348.432 	5.19271e-12 	100000
-4.63532 	348.432 	5.18032e-12 	100000
-4.63432 	348.432 	5.16793e-12 	100000
-4.63333 	348.432 	5.15554e-12 	100000
-4.63233 	348.432 	5.14316e-12 	100000
-4.63133 	348.432 	5.13077e-12 	100000
-4.63033 	348.432 	5.11838e-12 	100000
-4.62933 	348.432 	5.10599e-12 	100000
-4.62833 	348.432 	5.0936e-12 	100000
-4.62733 	348.432 	5.08122e-12 	100000
-4.62633 	348.432 	5.06883e-12 	100000
-4.62533 	348.432 	5.05644e-12 	100000
-4.62433 	348.432 	5.04405e-12 	100000
-4.62333 	348.432 	5.03166e-12 	100000
-4.62234 	348.432 	5.01928e-12 	100000
-4.62134 	348.432 	5.00689e-12 	100000
-4.62034 	348.432 	4.9945e-12 	100000
-4.61934 	348.432 	4.98211e-12 	100000
-4.61834 	348.432 	4.96972e-12 	100000
-4.61734 	348.432 	4.95734e-12 	100000
-4.61634 	348.432 	4.94495e-12 	100000
-4.61534 	348.432 	4.93256e-12 	100000
-4.61434 	348.432 	4.92017e-12 	100000
-4.61334 	348.432 	4.90778e-12 	100000
-4.61234 	348.432 	4.89539e-12 	100000
-4.61135 	348.432 	4.88301e-12 	100000
-4.61035 	348.432 	4.87062e-12 	100000
-4.60935 	348.432 	4.85823e-12 	100000
-4.60835 	348.432 	4.84584e-12 	100000
-4.60735 	348.432 	4.83345e-12 	100000
-4.60635 	348.432 	4.82107e-12 	100000
-4.60535 	348.432 	4.80868e-12 	100000
-4.60435 	348.432 	4.79629e-12 	100000
-4.60335 	348.432 	4.7839e-12 	100000
-4.60235 	348.432 	4.77151e-12 	100000
-4.60135 	348.432 	4.75913e-12 	100000
-4.60036 	348.432 	4.74674e-12 	100000
-4.59936 	348.432 	4.73435e-12 	100000
-4.59836 	348.432 	4.72196e-12 	100000
-4.59736 	348.432 	4.70957e-12 	100000
-4.59636 	348.432 	4.69719e-12 	100000
-4.59536 	348.432 	4.6848e-12 	100000
-4.59436 	348.432 	4.67241e-12 	100000
-4.59336 	348.432 	4.66002e-12 	100000
-4.59236 	348.432 	4.64763e-12 	100000
-4.59136 	348.432 	4.63525e-12 	100000
-4.59036 	348.432 	4.62286e-12 	100000
-4.58937 	348.432 	4.61047e-12 	100000
-4.58837 	348.432 	4.59808e-12 	100000
-4.58737 	348.432 	4.58569e-12 	100000
-4.58637 	348.432 	4.57331e-12 	100000
-4.58537 	348.432 	4.56092e-12 	100000
-4.58437 	348.432 	4.54853e-12 	100000
-4.58337 	348.432 	4.53614e-12 	100000
-4.58237 	348.432 	4.52375e-12 	100000
-4.58137 	348.432 	4.51137e-12 	100000
-4.58037 	348.432 	4.49898e-12 	100000
-4.57937 	348.432 	4.48659e-12 	100000
-4.57838 	348.432 	4.4742e-12 	100000
-4.57738 	348.432 	4.46181e-12 	100000
-4.57638 	348.432 	4.44943e-12 	100000
-4.57538 	348.432 	4.43704e-12 	100000
-4.57438 	348.432 	4.42465e-12 	100000
-4.57338 	348.432 	4.41226e-12 	100000
-4.57238 	348.432 	4.39987e-12 	100000
-4.57138 	348.432 	4.38749e-12 	100000
-4.57038 	348.432 	4.3751e-12 	100000
-4.56938 	348.432 	4.36271e-12 	100000
-4.56838 	348.432 	4.35032e-12 	100000
-4.56739 	348.432 	4.33793e-12 	100000
-4.56639 	348.432 	4.32555e-12 	100000
-4.56539 	348.432 	4.31316e-12 	100000
-4.56439 	348.432 	4.30077e-12 	100000
-4.56339 	348.432 	4.28838e-12 	100000
-4.56239 	348.432 	4.27599e-12 	100000
-4.56139 	348.432 	4.2636e-12 	100000
-4.56039 	348.432 	4.25122e-12 	100000
-4.55939 	348.432 	4.23883e-12 	100000
-4.55839 	348.432 	4.22644e-12 	100000
-4.55739 	348.432 	4.21405e-12 	100000
-4.5564 	348.432 	4.20166e-12 	100000
-4.5554 	348.432 	4.18928e-12 	100000
-4.5544 	348.432 	4.17689e-12 	100000
-4.5534 	348.432 	4.1645e-12 	100000
-4.5524 	348.432 	4.15211e-12 	100000
-4.5514 	348.432 	4.13972e-12 	100000
-4.5504 	348.432 	4.12734e-12 	100000
-4.5494 	348.432 	4.12379e-12 	100000
-4.5484 	348.432 	4.12617e-12 	100000
-4.5474 	348.432 	4.12854e-12 	100000
-4.5464 	348.432 	4.13092e-12 	100000
-4.54541 	348.432 	4.1333e-12 	100000
-4.54441 	348.432 	4.13567e-12 	100000
-4.54341 	348.432 	4.13805e-12 	100000
-4.54241 	348.432 	4.14042e-12 	100000
-4.54141 	348.432 	4.1428e-12 	100000
-4.54041 	348.432 	4.14517e-12 	100000
-4.53941 	348.432 	4.14755e-12 	100000
-4.53841 	348.432 	4.14992e-12 	100000
-4.53741 	348.432 	4.1523e-12 	100000
-4.53641 	348.432 	4.15468e-12 	100000
-4.53541 	348.432 	4.15705e-12 	100000
-4.53441 	348.432 	4.15943e-12 	100000
-4.53342 	348.432 	4.1618e-12 	100000
-4.53242 	348.432 	4.16418e-12 	100000
-4.53142 	348.432 	4.16655e-12 	100000
-4.53042 	348.432 	4.16893e-12 	100000
-4.52942 	348.432 	4.1713e-12 	100000
-4.52842 	348.432 	4.17368e-12 	100000
-4.52742 	348.432 	4.17606e-12 	100000
-4.52642 	348.432 	4.17843e-12 	100000
-4.52542 	348.432 	4.18081e-12 	100000
-4.52442 	348.432 	4.18318e-12 	100000
-4.52342 	348.432 	4.18556e-12 	100000
-4.52243 	348.432 	4.18793e-12 	100000
-4.52143 	348.432 	4.19031e-12 	100000
-4.52043 	348.432 	4.19268e-12 	100000
-4.51943 	348.432 	4.19506e-12 	100000
-4.51843 	348.432 	4.19744e-12 	100000
-4.51743 	348.432 	4.19981e-12 	100000
-4.51643 	348.432 	4.20219e-12 	100000
-4.51543 	348.432 	4.20456e-12 	100000
-4.51443 	348.432 	4.20694e-12 	100000
-4.51343 	348.432 	4.20931e-12 	100000
-4.51243 	348.432 	4.21169e-12 	100000
-4.51144 	348.432 	4.21406e-12 	100000
-4.51044 	348.432 	4.21644e-12 	100000
-4.50944 	348.432 	4.21882e-12 	100000
-4.50844 	348.432 	4.22119e-12 	100000
-4.50744 	348.432 	4.22357e-12 	100000
-4.50644 	348.432 	4.22594e-12 	100000
-4.50544 	348.432 	4.22832e-12 	100000
-4.50444 	348.432 	4.23069e-12 	100000
-4.50344 	348.432 	4.23307e-12 	100000
-4.50244 	348.432 	4.23544e-12 	100000
-4.50144 	348.432 	4.23782e-12 	100000
-4.50045 	348.432 	4.2402e-12 	100000
-4.49945 	348.432 	4.24257e-12 	100000
-4.49845 	348.432 	4.24495e-12 	100000
-4.49745 	348.432 	4.24732e-12 	100000
-4.49645 	348.432 	4.2497e-12 	100000
-4.49545 	348.432 	4.25207e-12 	100000
-4.49445 	348.432 	4.25445e-12 	100000
-4.49345 	348.432 	4.25682e-12 	100000
-4.49245 	348.432 	4.2592e-12 	100000
-4.49145 	348.432 	4.26158e-12 	100000
-4.49045 	348.432 	4.26395e-12 	100000
-4.48946 	348.432 	4.26633e-12 	100000
-4.48846 	348.432 	4.2687e-12 	100000
-4.48746 	348.432 	4.27108e-12 	100000
-4.48646 	348.432 	4.27345e-12 	100000
-4.48546 	348.432 	4.27583e-12 	100000
-4.48446 	348.432 	4.2782e-12 	100000
-4.48346 	348.432 	4.28058e-12 	100000
-4.48246 	348.432 	4.28296e-12 	100000
-4.48146 	348.432 	4.28533e-12 	100000
-4.48046 	348.432 	4.28771e-12 	100000
-4.47946 	348.432 	4.29008e-12 	100000
-4.47847 	348.432 	4.29246e-12 	100000
-4.47747 	348.432 	4.29483e-12 	100000
-4.47647 	348.432 	4.29721e-12 	100000
-4.47547 	348.432 	4.29958e-12 	100000
-4.47447 	348.432 	4.30196e-12 	100000
-4.47347 	348.432 	4.30434e-12 	100000
-4.47247 	348.432 	4.30671e-12 	100000
-4.47147 	348.432 	4.30909e-12 	100000
-4.47047 	348.432 	4.31146e-12 	100000
-4.46947 	348.432 	4.31384e-12 	100000
-4.46847 	348.432 	4.31621e-12 	100000
-4.46748 	348.432 	4.31859e-12 	100000
-4.46648 	348.432 	4.32096e-12 	100000
-4.46548 	348.432 	4.32334e-12 	100000
-4.46448 	348.432 	4.32572e-12 	100000
-4.46348 	348.432 	4.32809e-12 	100000
-4.46248 	348.432 	4.33047e-12 	100000
-4.46148 	348.432 	4.33284e-12 	100000
-4.46048 	348.432 	4.33522e-12 	100000
-4.45948 	348.432 	4.33759e-12 	100000
-4.45848 	348.432 	4.33997e-12 	100000
-4.45748 	348.432 	4.34234e-12 	100000
-4.45649 	348.432 	4.34472e-12 	100000
-4.45549 	348.432 	4.3471e-12 	100000
-4.45449 	348.432 	4.34947e-12 	100000
-4.45349 	348.432 	4.35185e-12 	100000
-4.45249 	348.432 	4.35422e-12 	100000
-4.45149 	348.432 	4.3566e-12 	100000
-4.45049 	348.432 	4.35897e-12 	100000
-4.44949 	348.432 	4.35715e-12 	100000
-4.44849 	348.432 	4.35128e-12 	100000
-4.44749 	348.432 	4.3454e-12 	100000
-4.44649 	348.432 	4.33953e-12 	100000
-4.4455 	348.432 	4.33366e-12 	100000
-4.4445 	348.432 	4.32778e-12 	100000
-4.4435 	348.432 	4.32191e-12 	100000
-4.4425 	348.432 	4.31604e-12 	100000
-4.4415 	348.432 	4.31016e-12 	100000
-4.4405 	348.432 	4.30429e-12 	100000
-4.4395 	348.432 	4.29842e-12 	100000
-4.4385 	348.432 	4.29254e-12 	100000
-4.4375 	348.432 	4.28667e-12 	100000
-4.4365 	348.432 	4.2808e-12 	100000
-4.4355 	348.432 	4.27492e-12 	100000
-4.4345 	348.432 	4.26905e-12 	100000
-4.43351 	348.432 	4.26318e-12 	100000
-4.43251 	348.432 	4.2573e-12 	100000
-4.43151 	348.432 	4.25143e-12 	100000
-4.43051 	348.432 	4.24556e-12 	100000
-4.42951 	348.432 	4.23968e-12 	100000
-4.42851 	348.432 	4.23381e-12 	100000
-4.42751 	348.432 	4.22794e-12 	100000
-4.42651 	348.432 	4.22206e-12 	100000
-4.42551 	348.432 	4.21619e-12 	100000
-4.42451 	348.432 	4.21032e-12 	100000
-4.42351 	348.432 	4.20444e-12 	100000
-4.42252 	348.432 	4.19857e-12 	100000
-4.42152 	348.432 	4.1927e-12 	100000
-4.42052 	348.432 	4.18682e-12 	100000
-4.41952 	348.432 	4.18095e-12 	100000
-4.41852 	348.432 	4.17508e-12 	100000
-4.41752 	348.432 	4.1692e-12 	100000
-4.41652 	348.432 	4.16333e-12 	100000
-4.41552 	348.432 	4.15746e-12 	100000
-4.41452 	348.432 	4.15158e-12 	100000
-4.41352 	348.432 	4.14571e-12 	100000
-4.41252 	348.432 	4.13984e-12 	100000
-4.41153 	348.432 	4.13396e-12 	100000
-4.41053 	348.432 	4.12809e-12 	100000
-4.40953 	348.432 	4.12222e-12 	100000
-4.40853 	348.432 	4.11634e-12 	100000
-4.40753 	348.432 	4.11047e-12 	100000
-4.40653 	348.432 	4.1046e-12 	100000
-4.40553 	348.432 	4.09872e-12 	100000
-4.40453 	348.432 	4.09285e-12 	100000
-4.40353 	348.432 	4.08698e-12 	100000
-4.40253 	348.432 	4.0811e-12 	100000
-4.40153 	348.432 	4.07523e-12 	100000
-4.40054 	348.432 	4.06936e-12 	100000
-4.39954 	348.432 	4.06348e-12 	100000
-4.39854 	348.432 	4.05761e-12 	100000
-4.39754 	348.432 	4.05174e-12 	100000
-4.39654 	348.432 	4.04587e-12 	100000
-4.39554 	348.432 	4.03999e-12 	100000
-4.39454 	348.432 	4.03412e-12 	100000
-4.39354 	348.432 	4.02825e-12 	100000
-4.39254 	348.432 	4.02237e-12 	100000
-4.39154 	348.432 	4.0165e-12 	100000
-4.39054 	348.432 	4.01063e-12 	100000
-4.38955 	348.432 	4.00475e-12 	100000
-4.38855 	348.432 	3.99888e-12 	100000
-4.38755 	348.432 	3.99301e-12 	100000
-4.38655 	348.432 	3.98713e-12 	100000
-4.38555 	348.432 	3.98126e-12 	100000
-4.38455 	348.432 	3.97539e-12 	100000
-4.38355 	348.432 	3.96951e-12 	100000
-4.38255 	348.432 	3.96364e-12 	100000
-4.38155 	348.432 	3.95777e-12 	100000
-4.38055 	348.432 	3.95189e-12 	100000
-4.37955 	348.432 	3.94602e-12 	100000
-4.37856 	348.432 	3.94015e-12 	100000
-4.37756 	348.432 	3.93427e-12 	100000
-4.37656 	348.432 	3.9284e-12 	100000
-4.37556 	348.432 	3.92253e-12 	100000
-4.37456 	348.432 	3.91665e-12 	100000
-4.37356 	348.432 	3.91078e-12 	100000
-4.37256 	348.432 	3.90491e-12 	100000
-4.37156 	348.432 	3.89903e-12 	100000
-4.37056 	348.432 	3.89316e-12 	100000
-4.36956 	348.432 	3.88729e-12 	100000
-4.36856 	348.432 	3.88141e-12 	100000
-4.36757 	348.432 	3.87554e-12 	100000
-4.36657 	348.432 	3.86967e-12 	100000
-4.36557 	348.432 	3.86379e-12 	100000
-4.36457 	348.432 	3.85792e-12 	100000
-4.36357 	348.432 	3.85205e-12 	100000
-4.36257 	348.432 	3.84617e-12 	100000
-4.36157 	348.432 	3.8403e-12 	100000
-4.36057 	348.432 	3.83443e-12 	100000
-4.35957 	348.432 	3.82855e-12 	100000
-4.35857 	348.432 	3.82268e-12 	100000
-4.35757 	348.432 	3.81681e-12 	100000
-4.35658 	348.432 	3.81093e-12 	100000
-4.35558 	348.432 	3.80506e-12 	100000
-4.35458 	348.432 	3.79919e-12 	100000
-4.35358 	348.432 	3.79331e-12 	100000
-4.35258 	348.432 	3.78744e-12 	100000
-4.35158 	348.432 	3.78157e-12 	100000
-4.35058 	348.432 	3.77569e-12 	100000
-4.34958 	348.432 	3.76938e-12 	100000
-4.34858 	348.432 	3.76246e-12 	100000
-4.34758 	348.432 	3.75553e-12 	100000
-4.34658 	348.432 	3.74861e-12 	100000
-4.34559 	348.432 	3.74169e-12 	100000
-4.34459 	348.432 	3.73477e-12 	100000
-4.34359 	348.432 	3.72784e-12 	100000
-4.34259 	348.432 	3.72092e-12 	100000
-4.34159 	348.432 	3.714e-12 	100000
-4.34059 	348.432 	3.70708e-12 	100000
-4.33959 	348.432 	3.70015e-12 	100000
-4.33859 	348.432 	3.69323e-12 	100000
-4.33759 	348.432 	3.68631e-12 	100000
-4.33659 	348.432 	3.67938e-12 	100000
-4.33559 	348.432 	3.67246e-12 	100000
-4.33459 	348.432 	3.66554e-12 	100000
-4.3336 	348.432 	3.65862e-12 	100000
-4.3326 	348.432 	3.65169e-12 	100000
-4.3316 	348.432 	3.64477e-12 	100000
-4.3306 	348.432 	3.63785e-12 	100000
-4.3296 	348.432 	3.63092e-12 	100000
-4.3286 	348.432 	3.624e-12 	100000
-4.3276 	348.432 	3.61708e-12 	100000
-4.3266 	348.432 	3.61016e-12 	100000
-4.3256 	348.432 	3.60323e-12 	100000
-4.3246 	348.432 	3.59631e-12 	100000
-4.3236 	348.432 	3.58939e-12 	100000
-4.32261 	348.432 	3.58247e-12 	100000
-4.32161 	348.432 	3.57554e-12 	100000
-4.32061 	348.432 	3.56862e-12 	100000
-4.31961 	348.432 	3.5617e-12 	100000
-4.31861 	348.432 	3.55477e-12 	100000
-4.31761 	348.432 	3.54785e-12 	100000
-4.31661 	348.432 	3.54093e-12 	100000
-4.31561 	348.432 	3.53401e-12 	100000
-4.31461 	348.432 	3.52708e-12 	100000
-4.31361 	348.432 	3.52016e-12 	100000
-4.31261 	348.432 	3.51324e-12 	100000
-4.31162 	348.432 	3.50631e-12 	100000
-4.31062 	348.432 	3.49939e-12 	100000
-4.30962 	348.432 	3.49247e-12 	100000
-4.30862 	348.432 	3.48555e-12 	100000
-4.30762 	348.432 	3.47862e-12 	100000
-4.30662 	348.432 	3.4717e-12 	100000
-4.30562 	348.432 	3.46478e-12 	100000
-4.30462 	348.432 	3.45786e-12 	100000
-4.30362 	348.432 	3.45093e-12 	100000
-4.30262 	348.432 	3.44401e-12 	100000
-4.30162 	348.432 	3.43709e-12 	100000
-4.30063 	348.432 	3.43016e-12 	100000
-4.29963 	348.432 	3.42324e-12 	100000
-4.29863 	348.432 	3.41632e-12 	100000
-4.29763 	348.432 	3.4094e-12 	100000
-4.29663 	348.432 	3.40247e-12 	100000
-4.29563 	348.432 	3.39555e-12 	100000
-4.29463 	348.432 	3.38863e-12 	100000
-4.29363 	348.432 	3.38171e-12 	100000
-4.29263 	348.432 	3.37478e-12 	100000
-4.29163 	348.432 	3.36786e-12 	100000
-4.29063 	348.432 	3.36094e-12 	100000
-4.28964 	348.432 	3.35401e-12 	100000
-4.28864 	348.432 	3.34709e-12 	100000
-4.28764 	348.432 	3.34017e-12 	100000
-4.28664 	348.432 	3.33325e-12 	100000
-4.28564 	348.432 	3.32632e-12 	100000
-4.28464 	348.432 	3.3194e-12 	100000
-4.28364 	348.432 	3.31248e-12 	100000
-4.28264 	348.432 	3.30555e-12 	100000
-4.28164 	348.432 	3.29863e-12 	100000
-4.28064 	348.432 	3.29171e-12 	100000
-4.27964 	348.432 	3.28479e-12 	100000
-4.27865 	348.432 	3.27786e-12 	100000
-4.27765 	348.432 	3.27094e-12 	100000
-4.27665 	348.432 	3.26402e-12 	100000
-4.27565 	348.432 	3.2571e-12 	100000
-4.27465 	348.432 	3.25017e-12 	100000
-4.27365 	348.432 	3.24325e-12 	100000
-4.27265 	348.432 	3.23633e-12 	100000
-4.27165 	348.432 	3.2294e-12 	100000
-4.27065 	348.432 	3.22248e-12 	100000
-4.26965 	348.432 	3.21556e-12 	100000
-4.26865 	348.432 	3.20864e-12 	100000
-4.26766 	348.432 	3.20171e-12 	100000
-4.26666 	348.432 	3.19479e-12 	100000
-4.26566 	348.432 	3.18787e-12 	100000
-4.26466 	348.432 	3.18095e-12 	100000
-4.26366 	348.432 	3.17402e-12 	100000
-4.26266 	348.432 	3.1671e-12 	100000
-4.26166 	348.432 	3.16018e-12 	100000
-4.26066 	348.432 	3.15325e-12 	100000
-4.25966 	348.432 	3.14633e-12 	100000
-4.25866 	348.432 	3.13941e-12 	100000
-4.25766 	348.432 	3.13249e-12 	100000
-4.25667 	348.432 	3.12556e-12 	100000
-4.25567 	348.432 	3.11864e-12 	100000
-4.25467 	348.432 	3.11172e-12 	100000
-4.25367 	348.432 	3.10479e-12 	100000
-4.25267 	348.432 	3.09787e-12 	100000
-4.25167 	348.432 	3.09095e-12 	100000
-4.25067 	348.432 	3.08403e-12 	100000
-4.24967 	348.432 	3.07812e-12 	100000
-4.24867 	348.432 	3.07431e-12 	100000
-4.24767 	348.432 	3.07049e-12 	100000
-4.24667 	348.432 	3.06667e-12 	100000
-4.24568 	348.432 	3.06285e-12 	100000
-4.24468 	348.432 	3.05903e-12 	100000
-4.24368 	348.432 	3.05521e-12 	100000
-4.24268 	348.432 	3.0514e-12 	100000
-4.24168 	348.432 	3.04758e-12 	100000
-4.24068 	348.432 	3.04376e-12 	100000
-4.23968 	348.432 	3.03994e-12 	100000
-4.23868 	348.432 	3.03612e-12 	100000
-4.23768 	348.432 	3.0323e-12 	100000
-4.23668 	348.432 	3.02848e-12 	100000
-4.23568 	348.432 	3.02467e-12 	100000
-4.23468 	348.432 	3.02085e-12 	100000
-4.23369 	348.432 	3.01703e-12 	100000
-4.23269 	348.432 	3.01321e-12 	100000
-4.23169 	348.432 	3.00939e-12 	100000
-4.23069 	348.432 	3.00557e-12 	100000
-4.22969 	348.432 	3.00176e-12 	100000
-4.22869 	348.432 	2.99794e-12 	100000
-4.22769 	348.432 	2.99412e-12 	100000
-4.22669 	348.432 	2.9903e-12 	100000
-4.22569 	348.432 	2.98648e-12 	100000
-4.22469 	348.432 	2.98266e-12 	100000
-4.22369 	348.432 	2.97884e-12 	100000