/*--------------------------------*- C++ -*----------------------------------*\
| =========                 |                                                 |
| \\      /  F ield         | OpenFOAM: The Open Source CFD Toolbox           |
|  \\    /   O peration     | Version:  v2012                                 |
|   \\  /    A nd           | Website:  www.openfoam.com                      |
|    \\/     M anipulation  |                                                 |
\*---------------------------------------------------------------------------*/
FoamFile
{
    version     2.0;
    format      ascii;
    class       volScalarField;
    location    "1";
    object      T;
}
// * * * * * * * * * * * * * * * * * * * * * * * * * * * * * * * * * * * * * //

dimensions      [0 0 0 1 0 0 0];


internalField   nonuniform List<scalar> 
1000
(
1.03819e-282
1.0411e-282
1.06108e-282
1.15184e-282
1.52882e-282
3.018e-282
8.65161e-282
2.90919e-281
1.00056e-280
3.34194e-280
1.05778e-279
3.08839e-279
7.86497e-279
1.45508e-278
-2.87068e-279
-2.2231e-277
-1.57932e-276
-8.42399e-276
-3.94816e-275
-1.70876e-274
-6.97615e-274
-2.71361e-273
-1.00981e-272
-3.59455e-272
-1.2186e-271
-3.8937e-271
-1.14694e-270
-2.95686e-270
-5.64037e-270
-1.12702e-271
7.72456e-269
5.63484e-268
3.02964e-267
1.42369e-266
6.16107e-266
2.51005e-265
9.72517e-265
3.59729e-264
1.26943e-263
4.25e-263
1.33257e-262
3.80415e-262
9.20657e-262
1.42611e-261
-2.37785e-261
-3.70137e-260
-2.36017e-259
-1.20241e-258
-5.46846e-258
-2.30812e-257
-9.19641e-257
-3.48471e-256
-1.25788e-255
-4.31139e-255
-1.38961e-254
-4.1222e-254
-1.06946e-253
-2.05853e-253
-1.41764e-254
2.74558e-252
2.01194e-251
1.07992e-250
5.05104e-250
2.17e-249
8.75173e-249
3.34519e-248
1.21514e-247
4.18338e-247
1.35209e-246
4.01499e-246
1.03998e-245
1.98372e-245
-1.02922e-247
-2.75203e-244
-1.99292e-243
-1.06333e-242
-4.94702e-242
-2.11282e-241
-8.46099e-241
-3.20543e-240
-1.15098e-239
-3.90055e-239
-1.23209e-238
-3.52452e-238
-8.47111e-238
-1.25627e-237
2.6257e-237
3.63808e-236
2.26943e-235
1.13881e-234
5.09981e-234
2.11395e-233
8.23637e-233
3.03284e-232
1.05398e-231
3.42618e-231
1.0193e-230
2.62984e-230
4.91124e-230
-8.77269e-231
-7.42667e-229
-5.24511e-228
-2.76249e-227
-1.27027e-226
-5.35513e-226
-2.11099e-225
-7.83893e-225
-2.74097e-224
-8.949e-224
-2.66986e-223
-6.89624e-223
-1.28519e-222
2.61905e-223
1.96616e-221
1.38231e-220
7.25289e-220
3.32002e-219
1.39151e-218
5.44359e-218
2.00088e-217
6.8981e-217
2.20584e-216
6.36079e-216
1.53406e-215
2.25937e-215
-4.93138e-215
-6.67592e-214
-4.1266e-213
-2.04888e-212
-9.04837e-212
-3.68208e-211
-1.39976e-210
-4.98496e-210
-1.65256e-209
-5.00046e-209
-1.31333e-208
-2.5357e-208
-8.50557e-210
3.44363e-207
2.48788e-206
1.31268e-205
5.9975e-205
2.49636e-204
9.65061e-204
3.48411e-203
1.16931e-202
3.5843e-202
9.58309e-202
1.92833e-201
6.02425e-202
-2.23212e-200
-1.68532e-199
-9.01005e-199
-4.13619e-198
-1.7224e-197
-6.63969e-197
-2.38208e-196
-7.90749e-196
-2.37819e-195
-6.12298e-195
-1.10292e-194
5.55143e-195
1.92127e-193
1.29957e-192
6.65368e-192
2.96951e-191
1.20701e-190
4.5387e-190
1.58131e-189
5.04703e-189
1.42701e-188
3.23765e-188
3.44872e-188
-2.0049e-187
-1.90956e-186
-1.08809e-185
-5.13939e-185
-2.16982e-184
-8.40495e-184
-3.00745e-183
-9.87265e-183
-2.89685e-182
-7.04939e-182
-1.03213e-181
2.36621e-181
3.11275e-180
1.89359e-179
9.20706e-179
3.95082e-178
1.54552e-177
5.56205e-177
1.83022e-176
5.36246e-176
1.29371e-175
1.81261e-175
-4.94628e-175
-6.02146e-174
-3.60242e-173
-1.73217e-172
-7.35085e-172
-2.83781e-171
-1.00357e-170
-3.2189e-170
-9.03226e-170
-1.97747e-169
-1.58892e-169
1.5988e-168
1.3542e-167
7.40724e-167
3.38898e-166
1.38295e-165
5.13623e-165
1.73539e-164
5.2215e-164
1.30835e-163
2.07265e-163
-3.35204e-163
-5.23059e-162
-3.24124e-161
-1.57333e-160
-6.66652e-160
-2.54807e-159
-8.83505e-159
-2.73599e-158
-7.16691e-158
-1.29528e-157
7.22319e-158
2.29433e-156
1.52041e-155
7.57173e-155
3.24898e-154
1.24922e-153
4.33585e-153
1.33674e-152
3.45163e-152
5.91632e-152
-5.84307e-152
-1.22581e-150
-7.82442e-150
-3.8189e-149
-1.60968e-148
-6.06481e-148
-2.04875e-147
-6.0538e-147
-1.43451e-146
-1.74691e-146
7.46719e-146
7.64329e-145
4.33543e-144
1.98952e-143
7.98693e-143
2.86215e-142
9.07154e-142
2.41864e-141
4.46333e-141
-2.00607e-141
-7.53688e-140
-4.99467e-139
-2.45578e-138
-1.02976e-137
-3.8191e-137
-1.25204e-136
-3.49306e-136
-7.17524e-136
-2.07425e-136
8.40483e-135
6.14077e-134
3.12314e-133
1.33144e-132
4.97921e-132
1.63649e-131
4.54668e-131
9.14862e-131
1.18951e-131
-1.17198e-129
-8.29625e-129
-4.14793e-128
-1.73861e-127
-6.3633e-127
-2.025e-126
-5.3005e-126
-8.93607e-126
1.07994e-125
1.97031e-124
1.21341e-123
5.6816e-123
2.26032e-122
7.81592e-122
2.29556e-121
5.1244e-121
3.88941e-121
-4.33133e-120
-3.5113e-119
-1.82184e-118
-7.71817e-118
-2.8102e-117
-8.74003e-117
-2.15549e-116
-2.83755e-116
9.99547e-116
1.07164e-114
5.9671e-114
2.61728e-113
9.74142e-113
3.08138e-112
7.74104e-112
1.07736e-111
-3.20987e-111
-3.6536e-110
-2.04865e-109
-8.95303e-109
-3.29342e-108
-1.01724e-107
-2.41912e-107
-2.55968e-107
1.55626e-106
1.40128e-105
7.36089e-105
3.0697e-104
1.07261e-103
3.06709e-103
6.11177e-103
-4.63243e-104
-8.60241e-102
-5.71976e-101
-2.67524e-100
-1.01995e-99
-3.21343e-99
-7.70995e-99
-8.09018e-99
5.02365e-98
4.44845e-97
2.28816e-96
9.23609e-96
3.05745e-95
7.86088e-95
1.09552e-94
-3.33388e-94
-3.68617e-93
-1.9908e-92
-8.19818e-92
-2.73423e-91
-7.00537e-91
-9.38562e-91
3.23845e-90
3.38831e-89
1.78877e-88
7.17742e-88
2.29933e-87
5.41173e-87
4.53526e-87
-4.28439e-86
-3.39412e-85
-1.63286e-84
-6.06178e-84
-1.74818e-83
-3.22548e-83
2.45756e-83
5.87598e-82
3.45407e-81
1.43806e-80
4.63639e-80
1.06059e-79
6.33691e-80
-9.99449e-79
-7.19784e-78
-3.25148e-77
-1.11131e-76
-2.74451e-76
-2.69522e-76
1.91051e-75
1.55434e-74
7.23907e-74
2.4921e-73
6.08195e-73
5.30837e-73
-4.63554e-72
-3.56153e-71
-1.59678e-70
-5.2113e-70
-1.13134e-69
-1.86863e-70
1.34672e-68
8.43802e-68
3.38764e-67
9.6567e-67
1.48134e-66
-3.44501e-66
-3.95168e-65
-1.91871e-64
-6.38583e-64
-1.35082e-63
9.9469e-65
1.75958e-62
1.0164e-61
3.7144e-61
8.84188e-61
4.79767e-61
-8.20835e-60
-5.28204e-59
-1.9917e-58
-4.78339e-58
-2.57192e-58
4.37885e-57
2.745e-56
9.88665e-56
2.1353e-55
-1.50227e-56
-2.615e-54
-1.38867e-53
-4.34705e-53
-6.84806e-53
1.43327e-52
1.53476e-51
6.29876e-51
1.48945e-50
4.86317e-51
-1.41464e-49
-7.58277e-49
-2.19133e-48
-2.48006e-48
1.15085e-47
8.1169e-47
2.62169e-46
3.81692e-46
-9.20216e-46
-8.02015e-45
-2.68e-44
-4.00579e-44
8.3202e-44
7.36344e-43
2.34412e-42
3.05713e-42
-8.43423e-42
-6.09967e-41
-1.70608e-40
-1.55831e-40
8.04784e-40
4.32443e-39
9.88619e-39
3.23194e-39
-6.26963e-38
-2.49313e-37
-4.34236e-37
2.28164e-37
3.76297e-36
1.13303e-35
1.36994e-35
-2.64494e-35
-1.72617e-34
-4.0388e-34
-2.83966e-34
1.4302e-33
6.16201e-33
1.15368e-32
2.77901e-33
-5.24945e-32
-1.76758e-31
-2.76777e-31
3.30718e-32
1.44941e-30
4.22886e-30
5.95321e-30
-1.56937e-30
-3.15526e-29
-8.70989e-29
-1.21515e-28
1.24511e-29
5.48028e-28
1.56564e-27
2.37922e-27
7.17266e-28
-7.29391e-27
-2.41891e-26
-4.28889e-26
-3.40037e-26
6.07331e-26
3.03106e-25
6.65313e-25
8.54929e-25
1.33975e-25
-2.61455e-24
-8.11576e-24
-1.47569e-23
-1.55703e-23
4.14446e-24
6.41557e-23
1.74518e-22
3.02049e-22
3.20321e-22
-3.14928e-23
-1.11699e-21
-3.19227e-21
-5.90192e-21
-7.45539e-21
-3.73065e-21
1.19334e-20
4.67936e-20
1.02567e-19
1.63296e-19
1.77605e-19
4.11976e-20
-4.04753e-19
-1.33056e-18
-2.78944e-18
-4.46209e-18
-5.26274e-18
-2.87958e-18
6.51192e-18
2.78659e-17
6.53947e-17
1.18114e-16
1.71713e-16
1.8637e-16
8.20916e-17
-2.72828e-16
-1.05802e-15
-2.4603e-15
-4.56318e-15
-7.12433e-15
-9.1978e-15
-8.578e-15
-1.10333e-15
2.00145e-14
6.444e-14
1.4378e-13
2.68179e-13
4.38466e-13
6.31118e-13
7.72625e-13
6.99722e-13
1.02992e-13
-1.54508e-12
-5.06871e-12
-1.16501e-11
-2.28228e-11
-4.03034e-11
-6.54976e-11
-9.84129e-11
-1.35555e-10
-1.66159e-10
-1.65799e-10
-8.5987e-11
1.62221e-10
7.33333e-10
1.885e-09
4.03306e-09
7.83076e-09
1.42807e-08
2.48905e-08
4.1887e-08
6.85052e-08
1.09375e-07
1.71032e-07
2.62584e-07
3.9657e-07
5.90066e-07
8.66068e-07
1.25524e-06
1.79809e-06
2.54762e-06
3.57256e-06
4.96135e-06
6.8268e-06
9.31171e-06
1.25955e-05
1.6902e-05
2.25082e-05
2.9755e-05
3.90588e-05
5.09251e-05
6.59634e-05
8.49047e-05
0.00010862
0.00013814
0.000174681
0.000219665
0.000274749
0.000341854
0.000423191
0.000521296
0.00063906
0.000779764
0.000947111
0.00114526
0.00137886
0.00165309
0.00197366
0.0023469
0.00277972
0.00327966
0.00385494
0.00451443
0.00526767
0.00612488
0.00709699
0.00819554
0.00943277
0.0108215
0.0123752
0.0141078
0.0160339
0.0181682
0.0205262
0.0231233
0.0259753
0.0290982
0.0325078
0.0362199
0.0402501
0.0446138
0.0493256
0.0544
0.0598505
0.0656898
0.0719298
0.0785813
0.085654
0.0931561
0.101095
0.109475
0.118302
0.127577
0.1373
0.147471
0.158088
0.169144
0.180633
0.192548
0.204878
0.21761
0.230731
0.244226
0.258078
0.272267
0.286774
0.301577
0.316654
0.33198
0.347532
0.363282
0.379205
0.395274
0.411461
0.427738
0.444078
0.460453
0.476834
0.493195
0.509507
0.525746
0.541883
0.557896
0.573758
0.589447
0.60494
0.620217
0.635257
0.650041
0.664552
0.678774
0.692692
0.706293
0.719564
0.732496
0.745078
0.757304
0.769165
0.780657
0.791776
0.802519
0.812883
0.822869
0.832475
0.841703
0.850555
0.859034
0.867141
0.874881
0.882258
0.889277
0.89594
0.902255
0.908224
0.913853
0.919146
0.924108
0.928742
0.933051
0.937039
0.940708
0.94406
0.947096
0.949816
0.95222
0.954306
0.956073
0.957517
0.958635
0.959423
0.959874
0.959984
0.959745
0.95915
0.958191
0.956859
0.955146
0.953043
0.95054
0.947627
0.944296
0.940537
0.936341
0.9317
0.926605
0.92105
0.915027
0.908532
0.901559
0.894105
0.886168
0.877747
0.868843
0.859458
0.849595
0.839261
0.82846
0.817204
0.805501
0.793364
0.780806
0.767843
0.754491
0.74077
0.726698
0.712297
0.69759
0.682599
0.667351
0.65187
0.636183
0.620317
0.604299
0.588158
0.571922
0.555619
0.539277
0.522926
0.506592
0.490303
0.474086
0.457967
0.441971
0.426124
0.410448
0.394967
0.379701
0.36467
0.349894
0.33539
0.321174
0.30726
0.293663
0.280395
0.267465
0.254883
0.242656
0.230792
0.219295
0.208169
0.197416
0.187039
0.177036
0.167407
0.15815
0.149263
0.140741
0.132579
0.124772
0.117314
0.110199
0.103417
0.0969627
0.0908264
0.0849996
0.0794731
0.0742376
0.0692834
0.0646009
0.0601802
0.0560112
0.0520842
0.048389
0.0449159
0.041655
0.0385967
0.0357315
0.03305
0.0305431
0.0282018
0.0260176
0.0239819
0.0220866
0.0203237
0.0186858
0.0171654
0.0157555
0.0144493
0.0132405
0.0121227
0.0110903
0.0101374
0.00925897
0.00844978
0.00770512
0.00702047
0.00639158
0.00581442
0.00528522
0.00480043
0.00435671
0.00395095
0.00358022
0.0032418
0.00293313
0.00265185
0.00239573
0.00216273
0.00195093
0.00175858
0.00158402
0.00142574
0.00128235
0.00115254
0.00103512
0.000928999
0.000833164
0.000746685
0.000668711
0.000598459
0.000535215
0.000478322
0.000427181
0.000381247
0.00034002
0.000303045
0.000269909
0.000240235
0.00021368
0.000189934
0.000168716
0.00014977
0.000132864
0.00011779
0.000104359
9.24e-05
8.1759e-05
7.22975e-05
6.38905e-05
5.64255e-05
4.98016e-05
4.39279e-05
3.8723e-05
3.41138e-05
3.00348e-05
2.64274e-05
2.32392e-05
2.04234e-05
1.79379e-05
1.57455e-05
1.38129e-05
1.21103e-05
1.06114e-05
9.29254e-06
8.13289e-06
7.11383e-06
6.21889e-06
5.43342e-06
4.74446e-06
4.14052e-06
3.61142e-06
3.14816e-06
2.7428e-06
2.38831e-06
2.07849e-06
1.80787e-06
1.57162e-06
1.3655e-06
1.18578e-06
1.02915e-06
8.92738e-07
7.73993e-07
6.70687e-07
5.80863e-07
5.02805e-07
4.3501e-07
3.7616e-07
3.25104e-07
2.80833e-07
2.42467e-07
2.09236e-07
1.80467e-07
1.55576e-07
1.34051e-07
1.15446e-07
9.93737e-08
8.54969e-08
7.35217e-08
6.31929e-08
5.42887e-08
4.66166e-08
4.00094e-08
3.43221e-08
2.94293e-08
2.52219e-08
2.16059e-08
1.84995e-08
1.58323e-08
1.35434e-08
1.158e-08
9.89667e-09
8.45414e-09
7.21857e-09
6.16077e-09
5.2556e-09
4.48139e-09
3.81952e-09
3.25395e-09
2.77089e-09
2.3585e-09
2.00659e-09
1.70645e-09
1.45057e-09
1.23252e-09
1.04679e-09
8.88671e-10
7.5411e-10
6.39652e-10
5.42335e-10
4.59629e-10
3.89372e-10
3.29716e-10
2.79084e-10
2.36128e-10
1.99702e-10
1.68825e-10
1.42664e-10
1.20507e-10
1.01751e-10
8.58785e-11
7.24531e-11
6.1102e-11
5.15087e-11
4.34044e-11
3.65607e-11
3.07839e-11
2.59097e-11
2.17988e-11
1.8333e-11
1.54122e-11
1.29518e-11
1.088e-11
9.13613e-12
7.66884e-12
6.43476e-12
5.39724e-12
4.5253e-12
3.79281e-12
3.17769e-12
2.66135e-12
2.22809e-12
1.86467e-12
1.55996e-12
1.30457e-12
1.09059e-12
9.11383e-13
7.61347e-13
6.35783e-13
5.30737e-13
4.4289e-13
3.69453e-13
3.08083e-13
2.56818e-13
2.14008e-13
1.78272e-13
1.48452e-13
1.23578e-13
1.02836e-13
8.55457e-14
7.11385e-14
5.91376e-14
4.91446e-14
4.08264e-14
3.39047e-14
2.81472e-14
2.336e-14
1.93821e-14
1.60841e-14
1.33812e-14
1.1316e-14
)
;

boundaryField
{
    sides
    {
        type            zeroGradient;
    }
    empty
    {
        type            empty;
    }
}


// ************************************************************************* //
