/*--------------------------------*- C++ -*----------------------------------*\
| =========                 |                                                 |
| \\      /  F ield         | OpenFOAM: The Open Source CFD Toolbox           |
|  \\    /   O peration     | Version:  v2012                                 |
|   \\  /    A nd           | Website:  www.openfoam.com                      |
|    \\/     M anipulation  |                                                 |
\*---------------------------------------------------------------------------*/
FoamFile
{
    version     2.0;
    format      ascii;
    class       volScalarField;
    location    "2";
    object      T;
}
// * * * * * * * * * * * * * * * * * * * * * * * * * * * * * * * * * * * * * //

dimensions      [0 0 0 1 0 0 0];


internalField   nonuniform List<scalar> 
1000
(
7.47892e-26
-1.68869e-25
2.74902e-25
-4.86734e-25
8.39875e-25
-1.45587e-24
2.51444e-24
-4.3365e-24
7.46358e-24
-1.28213e-23
2.19823e-23
-3.76157e-23
6.42412e-23
-1.09498e-22
1.86267e-22
-3.16231e-22
5.35803e-22
-9.06011e-22
1.52892e-21
-2.57486e-21
4.32751e-21
-7.25823e-21
1.21487e-20
-2.0292e-20
3.38233e-20
-5.62597e-20
9.33819e-20
-1.54671e-19
2.5564e-19
-4.21617e-19
6.93861e-19
-1.13943e-18
1.86704e-18
-3.05259e-18
4.97996e-18
-8.10628e-18
1.31659e-17
-2.13355e-17
3.44966e-17
-5.56501e-17
8.95702e-17
-1.43835e-16
2.30442e-16
-3.68342e-16
5.87387e-16
-9.34493e-16
1.4832e-15
-2.3485e-15
3.70971e-15
-5.84579e-15
9.1895e-15
-1.44105e-14
2.25425e-14
-3.51761e-14
5.47538e-14
-8.50142e-14
1.31666e-13
-2.03401e-13
3.13417e-13
-4.81697e-13
7.38414e-13
-1.129e-12
1.72165e-12
-2.61848e-12
3.97188e-12
-6.00866e-12
9.06537e-12
-1.36399e-11
2.04667e-11
-3.06256e-11
4.56997e-11
-6.80024e-11
1.00904e-10
-1.493e-10
2.20274e-10
-3.24052e-10
4.75335e-10
-6.95201e-10
1.01376e-09
-1.4739e-09
2.13646e-09
-3.08748e-09
4.44823e-09
-6.38898e-09
9.14801e-09
-1.30575e-08
1.8579e-08
-2.63511e-08
3.72544e-08
-5.24985e-08
7.37385e-08
-1.0323e-07
1.44035e-07
-2.00295e-07
2.77584e-07
-3.8338e-07
5.27666e-07
-7.23718e-07
9.89109e-07
-1.347e-06
1.82779e-06
-2.47117e-06
3.32873e-06
-4.46723e-06
5.97261e-06
-7.95495e-06
1.05546e-05
-1.39493e-05
1.83635e-05
-2.40786e-05
3.14452e-05
-4.08985e-05
5.29746e-05
-6.83299e-05
8.77638e-05
-0.000112242
0.000142926
-0.000181197
0.000228691
-0.00028733
0.000359349
-0.000447329
0.000554219
-0.000683357
0.000838482
-0.00102373
0.00124361
-0.00150299
0.00180701
-0.00216102
0.00257044
-0.0030406
0.00357661
-0.00418305
0.00486376
-0.00562154
0.00645778
-0.00737219
0.00836237
-0.00942352
0.0105481
-0.0117256
0.0129423
-0.0141812
0.015422
-0.0166415
0.0178135
-0.0189099
0.0199009
-0.0207564
0.0214464
-0.0219431
0.0222213
-0.0222604
0.0220452
-0.0215675
0.0208268
-0.0198312
0.0185976
-0.0171516
0.0155274
-0.013766
0.0119144
-0.0100236
0.00814607
-0.00633357
0.00463462
-0.00309202
0.00174072
-0.000606041
-0.000297468
0.000966611
-0.00140934
0.00164383
-0.00169696
0.0016021
-0.00139668
0.00111939
-0.0008076
0.000494832
-0.000208834
-2.98302e-05
0.000208459
-0.000322179
0.000373228
-0.00036966
0.00032366
-0.000249643
0.000162372
-7.52793e-05
-8.37449e-07
5.86393e-05
-9.45453e-05
0.000108531
-0.000103509
8.44249e-05
-5.72209e-05
2.78225e-05
-1.29115e-06
-1.87625e-05
3.04526e-05
-3.35829e-05
2.9351e-05
-1.98757e-05
7.65067e-06
4.97693e-06
-1.62182e-05
2.50923e-05
-3.14973e-05
3.61194e-05
-4.02252e-05
4.53988e-05
-5.32853e-05
6.53954e-05
-8.30021e-05
0.000107143
-0.000138712
0.000178613
-0.000227942
0.000288149
-0.000361161
0.000449455
-0.00055606
0.000684521
-0.000838838
0.00102338
-0.00124282
0.00150207
-0.00180625
0.00216058
-0.00257036
0.00304083
-0.003577
0.00418345
-0.00486406
0.00562166
-0.00645774
0.00737204
-0.00836218
0.00942336
-0.010548
0.0117256
-0.0129424
0.0141813
-0.0154221
0.0166415
-0.0178135
0.0189098
-0.0199009
0.0207563
-0.0214464
0.0219431
-0.0222213
0.0222604
-0.0220452
0.0215675
-0.0208268
0.0198312
-0.0185976
0.0171516
-0.0155274
0.013766
-0.0119144
0.0100236
-0.00814608
0.00633357
-0.00463462
0.00309202
-0.00174071
0.00060604
0.000297468
-0.00096661
0.00140934
-0.00164383
0.00169696
-0.0016021
0.00139668
-0.00111939
0.000807599
-0.000494831
0.000208831
2.98337e-05
-0.000208463
0.000322186
-0.000373237
0.000369673
-0.000323678
0.000249669
-0.000162409
7.53319e-05
7.63653e-07
-5.85361e-05
9.44014e-05
-0.00010833
0.000103231
-8.40415e-05
5.66932e-05
-2.70988e-05
3.02031e-07
2.01095e-05
-3.22803e-05
3.6054e-05
-3.26797e-05
2.43429e-05
-1.36233e-05
2.97802e-06
5.66362e-06
-1.1143e-05
1.31338e-05
-1.20408e-05
8.77999e-06
-4.50025e-06
3.10772e-07
2.93459e-06
-4.76171e-06
5.09944e-06
-4.21393e-06
2.58315e-06
-7.48682e-07
-8.18675e-07
1.81196e-06
-2.12592e-06
1.84062e-06
-1.16424e-06
3.56035e-07
3.48372e-07
-7.91375e-07
9.17457e-07
-7.66393e-07
4.42952e-07
-7.53606e-08
-2.24347e-07
3.87737e-07
-3.99905e-07
2.92434e-07
-1.24541e-07
-3.9971e-08
1.52484e-07
-1.90865e-07
1.60543e-07
-8.69813e-08
3.50666e-09
6.08569e-08
-8.97146e-08
8.18885e-08
-4.85418e-08
6.83887e-09
2.70903e-08
-4.33924e-08
4.05171e-08
-2.3964e-08
2.82908e-09
1.42032e-08
-2.18905e-08
1.95914e-08
-1.05028e-08
-3.61662e-10
8.45059e-09
-1.13033e-08
9.03933e-09
-3.74944e-09
-1.75517e-09
5.21512e-09
-5.7078e-09
3.72852e-09
-6.77259e-10
-1.91848e-09
3.06968e-09
-2.62497e-09
1.15114e-09
4.68723e-10
-1.48876e-09
1.59764e-09
-9.60936e-10
4.18783e-11
6.73643e-10
-9.0385e-10
6.55858e-10
-1.58578e-10
-2.93754e-10
4.95439e-10
-4.0813e-10
1.42319e-10
1.29413e-10
-2.70973e-10
2.42174e-10
-9.76116e-11
-6.19091e-11
1.50955e-10
-1.3997e-10
5.82021e-11
3.46238e-11
-8.65752e-11
7.9404e-11
-3.08736e-11
-2.28521e-11
5.1019e-11
-4.40148e-11
1.40034e-11
1.67063e-11
-3.0506e-11
2.34538e-11
-4.50873e-12
-1.25182e-11
1.80846e-11
-1.1582e-11
-2.90909e-13
9.14298e-12
-1.03207e-11
4.8969e-12
2.24962e-12
-6.28805e-12
5.4198e-12
-1.33673e-12
-2.62309e-12
3.95631e-12
-2.41671e-12
-3.29519e-13
2.20569e-12
-2.17914e-12
7.08592e-13
8.8731e-13
-1.50516e-12
9.52243e-13
1.22558e-13
-8.58405e-13
8.23863e-13
-2.20293e-13
-3.95655e-13
5.85803e-13
-3.11562e-13
-1.21808e-13
3.65208e-13
-2.83529e-13
1.24897e-14
2.05439e-13
-2.19176e-13
6.62751e-14
1.00642e-13
-1.50646e-13
7.2823e-14
4.43748e-14
-1.00566e-13
6.61575e-14
1.16074e-14
-6.10423e-14
4.94982e-14
2.13105e-16
-3.89547e-14
3.79896e-14
-6.60953e-15
-2.20791e-14
2.54527e-14
-5.82643e-15
-1.44591e-14
1.87707e-14
-6.22869e-15
-7.91152e-15
1.1875e-14
-3.75119e-15
-5.99777e-15
9.04527e-15
-3.70137e-15
-3.03818e-15
5.00088e-15
-1.39266e-15
-3.45822e-15
4.56434e-15
-2.2533e-15
-1.23167e-15
1.55072e-15
-5.01897e-17
-2.53275e-15
2.32083e-15
-1.3232e-15
-6.5406e-16
2.63019e-16
2.67613e-16
-1.53825e-15
8.77209e-16
-3.49684e-16
-6.63327e-16
2.35533e-16
-4.32608e-17
-3.81393e-16
-2.13979e-16
5.51698e-16
-9.71253e-16
6.71413e-16
-6.66643e-16
5.90747e-16
-1.06019e-15
1.12945e-15
-1.34095e-15
1.03874e-15
-1.22829e-15
1.11976e-15
-1.50983e-15
1.30563e-15
-1.5059e-15
1.18984e-15
-1.48422e-15
1.29643e-15
-1.59613e-15
1.31345e-15
-1.51533e-15
1.27174e-15
-1.52384e-15
1.32188e-15
-1.48694e-15
1.24842e-15
-1.37391e-15
1.20653e-15
-1.30858e-15
1.15668e-15
-1.17708e-15
1.0816e-15
-1.08207e-15
1.08298e-15
-1.0308e-15
1.11323e-15
-1.02817e-15
1.24297e-15
-1.14539e-15
1.47057e-15
-1.34165e-15
1.77047e-15
-1.62863e-15
2.14086e-15
-1.96119e-15
2.51476e-15
-2.29459e-15
2.87744e-15
-2.61401e-15
3.19759e-15
-2.88736e-15
3.46469e-15
-3.12248e-15
3.68011e-15
-3.30455e-15
3.82341e-15
-3.42273e-15
3.88763e-15
-3.46003e-15
3.84827e-15
-3.39738e-15
3.70127e-15
-3.23576e-15
3.44951e-15
-2.98127e-15
3.10994e-15
-2.65968e-15
2.71108e-15
-2.29642e-15
2.27564e-15
-1.91622e-15
1.82805e-15
-1.53371e-15
1.37739e-15
-1.15564e-15
9.3412e-16
-7.80227e-16
4.9785e-16
-3.98994e-16
6.10637e-17
4.73393e-18
-3.82423e-16
4.38732e-16
-8.30141e-16
8.83297e-16
-1.24266e-15
1.31792e-15
-1.56512e-15
1.76591e-15
-1.66201e-15
2.54365e-15
-8.69256e-16
5.15989e-15
4.05333e-15
1.67682e-14
2.86005e-14
7.06404e-14
1.43629e-13
3.16444e-13
6.63069e-13
1.40701e-12
2.93324e-12
6.09505e-12
1.2534e-11
2.55929e-11
5.17951e-11
1.03968e-10
2.06881e-10
4.08118e-10
7.97976e-10
1.54632e-09
2.96923e-09
5.64896e-09
1.06465e-08
1.98747e-08
3.67436e-08
6.72653e-08
1.21916e-07
2.18739e-07
3.88439e-07
6.82628e-07
1.18698e-06
2.04192e-06
3.47459e-06
5.84755e-06
9.73168e-06
1.60135e-05
2.605e-05
4.18888e-05
6.65741e-05
0.000104563
0.000162284
0.000248859
0.000377032
0.000564311
0.000834359
0.00121861
0.00175809
0.00250544
0.00352693
0.00490448
0.00673741
0.00914381
0.0122612
0.0162462
0.0212734
0.0275327
0.0352253
0.0445578
0.0557362
0.0689572
0.0843996
0.102215
0.122519
0.145382
0.170822
0.198801
0.229218
0.261912
0.296661
0.333191
0.371176
0.410255
0.450038
0.49012
0.530094
0.569563
0.608149
0.645508
0.681334
0.715369
0.747404
0.777283
0.804902
0.830208
0.853193
0.873893
0.892379
0.908751
0.923132
0.935664
0.946498
0.955791
0.963702
0.970385
0.975989
0.980653
0.984508
0.98767
0.990247
0.992331
0.994006
0.995343
0.996403
0.997238
0.997891
0.998399
0.998792
0.999093
0.999323
0.999497
0.999629
0.999727
0.999801
0.999855
0.999895
0.999925
0.999946
0.999962
0.999973
0.999981
0.999987
0.999991
0.999994
0.999995
0.999997
0.999998
0.999998
0.999999
0.999999
0.999999
0.999999
0.999998
0.999996
0.999994
0.99999
0.999984
0.999974
0.999958
0.999933
0.999895
0.999838
0.999751
0.999623
0.999436
0.999166
0.998781
0.998242
0.997495
0.996473
0.995096
0.993263
0.990856
0.987739
0.983754
0.978727
0.972467
0.964775
0.955442
0.944264
0.931043
0.9156
0.897785
0.877481
0.854618
0.829178
0.801199
0.770782
0.738088
0.703339
0.666809
0.628824
0.589745
0.549962
0.50988
0.469906
0.430437
0.391851
0.354492
0.318666
0.284631
0.252596
0.222717
0.195098
0.169792
0.146807
0.126107
0.107621
0.0912494
0.076868
0.0643361
0.0535021
0.0442086
0.0362978
0.0296148
0.024011
0.0193465
0.015492
0.0123296
0.00975308
0.00766854
0.00599355
0.00465669
0.0035968
0.002762
0.00210874
0.00160081
0.00120835
0.000907008
0.000677041
0.000502607
0.000371086
0.000272507
0.000199049
0.000144625
0.000104533
7.51644e-05
5.377e-05
3.82701e-05
2.71015e-05
1.9097e-05
1.33904e-05
9.34327e-06
6.48792e-06
4.48365e-06
3.0839e-06
2.1112e-06
1.4386e-06
9.75782e-07
6.58848e-07
4.42852e-07
2.9634e-07
1.97424e-07
1.3095e-07
8.64821e-08
5.68695e-08
3.72377e-08
2.42804e-08
1.57657e-08
1.01946e-08
6.56524e-09
4.21081e-09
2.68988e-09
1.71147e-09
1.08465e-09
6.84713e-10
4.3057e-10
2.69719e-10
1.68316e-10
1.0464e-10
6.48109e-11
3.99934e-11
2.45885e-11
1.50624e-11
9.19372e-12
5.59156e-12
3.38871e-12
2.04649e-12
1.2316e-12
7.38638e-13
4.41473e-13
2.62967e-13
1.56112e-13
9.23681e-14
5.44714e-14
3.20176e-14
1.87584e-14
1.09547e-14
6.37694e-15
3.70037e-15
2.14048e-15
1.23429e-15
7.09545e-16
4.06636e-16
2.32331e-16
1.32341e-16
7.51587e-17
4.25569e-17
2.40258e-17
1.35242e-17
7.59071e-18
4.24815e-18
2.37069e-18
1.31921e-18
7.3203e-19
4.05069e-19
2.23523e-19
1.23004e-19
6.75038e-20
3.69452e-20
2.01659e-20
1.09778e-20
5.96018e-21
3.22745e-21
1.7431e-21
9.38986e-22
5.04517e-22
2.70384e-22
1.44538e-22
7.70704e-23
4.09926e-23
2.17492e-23
1.15109e-23
6.07728e-24
3.20076e-24
1.68169e-24
8.81447e-25
4.60905e-25
2.40436e-25
1.25131e-25
6.49705e-26
3.36558e-26
1.73942e-26
8.96923e-27
4.61443e-27
2.36865e-27
1.21314e-27
6.19945e-28
3.16108e-28
1.60828e-28
8.16471e-29
4.13598e-29
2.09064e-29
1.05451e-29
5.30761e-30
2.66581e-30
1.33613e-30
6.68282e-31
3.33559e-31
1.66146e-31
8.25885e-32
4.097e-32
2.02831e-32
1.00215e-32
4.94153e-33
2.43181e-33
1.19438e-33
5.85472e-34
2.86433e-34
1.39862e-34
6.81619e-35
3.31554e-35
1.60969e-35
7.80025e-36
3.77278e-36
1.82139e-36
8.77689e-37
4.2216e-37
2.02684e-37
9.71335e-38
4.64658e-38
2.21879e-38
1.0576e-38
5.03215e-39
2.39011e-39
1.13323e-39
5.36366e-40
2.53425e-40
1.19532e-40
5.62829e-41
2.6456e-41
1.24147e-41
5.81586e-42
2.71996e-42
1.26995e-42
5.91952e-43
2.75468e-43
1.2798e-43
5.93616e-44
2.74892e-44
1.27092e-44
5.86646e-45
2.70359e-45
1.24399e-45
5.71484e-46
2.62126e-46
1.20043e-46
5.48895e-47
2.50594e-47
1.14231e-47
5.19915e-48
2.36276e-48
1.07214e-48
4.85767e-49
2.19763e-49
9.92738e-50
4.47787e-50
2.01682e-50
9.07041e-51
4.07336e-51
1.82662e-51
8.17934e-52
3.65732e-52
1.63301e-52
7.28108e-53
3.24182e-53
1.44136e-53
6.3995e-54
2.83737e-54
1.25627e-54
5.5546e-55
2.45259e-55
1.08145e-55
4.76208e-56
2.09411e-56
9.19645e-57
4.03328e-57
1.76652e-57
7.72687e-58
3.37533e-58
1.47251e-58
6.41555e-59
2.79155e-59
1.2131e-59
5.26485e-60
2.28203e-60
9.87874e-61
4.27105e-61
1.84418e-61
7.95429e-62
3.42391e-62
1.47703e-62
6.26714e-63
2.84019e-63
9.2819e-64
)
;

boundaryField
{
    sides
    {
        type            inletOutlet;
        inletValue      uniform 0;
        value           nonuniform List<scalar> 2(9.2819e-64 0);
    }
    empty
    {
        type            empty;
    }
}


// ************************************************************************* //
