/*--------------------------------*- C++ -*----------------------------------*\
| =========                 |                                                 |
| \\      /  F ield         | OpenFOAM: The Open Source CFD Toolbox           |
|  \\    /   O peration     | Version:  v2012                                 |
|   \\  /    A nd           | Website:  www.openfoam.com                      |
|    \\/     M anipulation  |                                                 |
\*---------------------------------------------------------------------------*/
FoamFile
{
    version     2.0;
    format      ascii;
    class       volScalarField;
    location    "5";
    object      T;
}
// * * * * * * * * * * * * * * * * * * * * * * * * * * * * * * * * * * * * * //

dimensions      [0 0 0 1 0 0 0];


internalField   nonuniform List<scalar> 
1000
(
1.83277e-284
3.29309e-285
6.41057e-284
-2.58534e-283
1.35413e-282
-6.71553e-282
3.33032e-281
-1.63694e-280
7.98561e-280
-3.86523e-279
1.85615e-278
-8.84258e-278
4.17862e-277
-1.95854e-276
9.10402e-276
-4.1965e-275
1.91799e-274
-8.69077e-274
3.90363e-273
-1.73789e-272
7.66754e-272
-3.35203e-271
1.45181e-270
-6.2286e-270
2.64651e-269
-1.11346e-268
4.63782e-268
-1.91202e-267
7.80035e-267
-3.14824e-266
1.25672e-265
-4.96024e-265
1.93517e-264
-7.45997e-264
2.84049e-263
-1.06783e-262
3.96151e-262
-1.44958e-261
5.2286e-261
-1.8578e-260
6.49751e-260
-2.23479e-259
7.55103e-259
-2.50327e-258
8.1296e-258
-2.58145e-257
7.99532e-257
-2.40769e-256
7.01902e-256
-1.96865e-255
5.2623e-255
-1.31967e-254
3.01369e-254
-5.8436e-254
7.43287e-254
7.44063e-254
-1.03181e-252
5.0754e-252
-1.93295e-251
6.37531e-251
-1.87711e-250
4.93017e-250
-1.11999e-249
1.98015e-249
-1.43934e-249
-8.49151e-249
5.68067e-248
-2.31281e-247
7.56698e-247
-2.09445e-246
4.82072e-246
-8.17716e-246
3.56177e-246
4.72161e-245
-2.70617e-244
1.00484e-243
-2.95301e-243
6.96197e-243
-1.16718e-242
3.48977e-243
7.46859e-242
-3.98918e-241
1.38842e-240
-3.71724e-240
7.38402e-240
-7.06979e-240
-2.31078e-239
1.66853e-238
-6.25414e-238
1.7117e-237
-3.35363e-237
2.7748e-237
1.26259e-236
-8.08176e-236
2.82837e-235
-7.05044e-235
1.12633e-234
1.40808e-235
-9.19047e-234
4.11257e-233
-1.18562e-232
2.29592e-232
-1.48623e-232
-1.05194e-231
5.83357e-231
-1.82082e-230
3.75156e-230
-3.07189e-230
-1.42934e-229
8.5448e-229
-2.67586e-228
5.3346e-228
-3.4049e-228
-2.44816e-227
1.29902e-226
-3.75536e-226
6.48283e-226
-9.29677e-228
-4.66706e-225
1.96208e-224
-4.80888e-224
5.80926e-224
1.06087e-223
-8.53462e-223
2.73305e-222
-5.03133e-222
8.99676e-223
3.21932e-221
-1.35707e-220
3.14305e-220
-2.90559e-220
-1.06815e-219
6.25696e-219
-1.70362e-218
2.26223e-218
3.13458e-218
-2.79224e-217
8.56123e-217
-1.33701e-216
-8.4548e-217
1.24668e-215
-4.12205e-215
6.88852e-215
2.61282e-215
-5.70264e-214
1.93237e-213
-3.2202e-213
-1.37932e-213
2.69608e-212
-8.85158e-212
1.36984e-211
1.06478e-211
-1.30592e-210
3.93136e-210
-5.14437e-210
-8.24824e-210
6.33756e-209
-1.66045e-208
1.53945e-208
5.73061e-208
-2.99222e-207
6.43687e-207
-2.11795e-207
-3.53069e-206
1.3289e-205
-2.1338e-205
-1.59963e-205
1.9272e-204
-5.31653e-204
4.89823e-204
1.85766e-203
-9.21713e-203
1.7771e-202
2.41344e-203
-1.22357e-201
3.73991e-201
-3.98373e-201
-1.14258e-200
6.12949e-200
-1.18138e-199
-2.41819e-200
8.25777e-199
-2.38043e-198
2.03638e-198
8.86083e-198
-3.96011e-197
6.31823e-197
5.99677e-197
-5.74237e-196
1.32209e-195
-3.017e-196
-7.35456e-195
2.32618e-194
-2.16411e-194
-8.17956e-194
3.67711e-193
-5.41628e-193
-7.30773e-193
5.38284e-192
-1.05815e-191
-3.48676e-192
7.42484e-191
-1.83049e-190
4.93665e-191
9.76475e-190
-2.94068e-189
2.00893e-189
1.2364e-188
-4.49762e-188
4.4659e-188
1.52235e-187
-6.65193e-187
8.19848e-187
1.84572e-186
-9.61816e-186
1.36109e-185
2.24159e-185
-1.37058e-184
2.11702e-184
2.78933e-184
-1.93595e-183
3.13682e-183
3.64495e-183
-2.72048e-182
4.46241e-182
5.08959e-182
-3.80913e-181
6.10787e-181
7.59798e-181
-5.31088e-180
8.02145e-180
1.19265e-179
-7.3537e-179
1.00219e-178
1.92112e-178
-1.00657e-177
1.17007e-177
3.10485e-177
-1.35318e-176
1.22885e-176
4.94981e-176
-1.77136e-175
1.04951e-175
7.69076e-175
-2.23189e-174
4.36545e-175
1.15405e-173
-2.66181e-173
-8.76611e-174
1.65881e-172
-2.9225e-172
-3.20726e-172
2.26297e-171
-2.79055e-171
-6.85793e-171
2.89345e-170
-1.95415e-170
-1.19833e-169
3.39827e-169
-4.50612e-171
-1.83778e-168
3.52781e-168
3.26872e-168
-2.52018e-167
2.9417e-167
8.10965e-167
-3.0723e-166
1.26617e-166
1.41407e-165
-3.22279e-165
-1.77451e-165
2.02932e-164
-2.63342e-164
-6.14766e-164
2.46011e-163
-9.94098e-164
-1.12614e-162
2.43447e-162
1.80908e-162
-1.57781e-161
1.6722e-161
5.48056e-161
-1.76651e-160
1.48752e-162
9.14235e-160
-1.46697e-159
-2.40275e-159
1.13437e-158
-5.30723e-159
-5.0099e-158
1.04066e-157
9.82083e-158
-6.80043e-157
5.16808e-157
2.69528e-156
-6.59386e-156
-4.04542e-156
3.92384e-155
-3.58792e-155
-1.4684e-154
3.87817e-154
1.95286e-154
-2.21581e-153
2.06871e-153
8.25188e-153
-2.14629e-152
-1.23409e-152
1.23009e-151
-1.00547e-151
-4.77852e-151
1.11373e-150
9.31615e-151
-6.66268e-150
3.78945e-150
2.7958e-149
-5.29981e-149
-7.19036e-149
3.45358e-148
-6.34749e-149
-1.60259e-147
2.18915e-147
5.21231e-147
-1.65747e-146
-6.25192e-147
8.68313e-146
-6.68942e-146
-3.42496e-145
6.94705e-145
8.84695e-145
-4.2603e-144
3.01722e-145
1.99265e-143
-2.20891e-143
-7.16803e-143
1.77075e-142
1.60484e-142
-9.92816e-142
2.19407e-142
4.44423e-141
-5.28632e-141
-1.57625e-140
3.94163e-140
3.69311e-140
-2.16958e-139
2.45946e-140
9.82759e-139
-9.79638e-139
-3.68192e-138
7.67565e-138
1.04142e-137
-4.39444e-137
-1.13716e-137
2.10196e-136
-1.17335e-136
-8.64344e-136
1.21085e-135
2.9874e-135
-7.76301e-135
-7.6767e-135
4.07323e-134
4.84903e-135
-1.86705e-133
1.10608e-133
7.59522e-133
-1.01732e-132
-2.70262e-132
6.33723e-132
7.86555e-132
-3.32283e-131
-1.37542e-131
1.55654e-130
-3.49285e-131
-6.65284e-130
5.48963e-130
2.60277e-129
-3.9003e-129
-9.19903e-129
2.2132e-128
2.81213e-128
-1.11353e-127
-6.40886e-128
5.16007e-127
1.85999e-128
-2.24026e-126
9.98841e-127
9.18092e-126
-8.53313e-126
-3.55621e-125
5.22682e-125
1.29579e-124
-2.77816e-124
-4.38038e-124
1.35806e-123
1.32876e-123
-6.26562e-123
-3.29427e-123
2.76659e-122
4.1518e-123
-1.17903e-121
2.17558e-122
4.87634e-121
-2.43733e-121
-1.96475e-120
1.59385e-120
7.73291e-120
-8.74811e-120
-2.97892e-119
4.38439e-119
1.12486e-118
-2.07559e-118
-4.16812e-118
9.44353e-118
1.51694e-117
-4.17201e-117
-5.42639e-117
1.80169e-116
1.90948e-116
-7.64151e-116
-6.6168e-116
3.19409e-115
2.26176e-115
-1.31927e-114
-7.64846e-115
5.39568e-114
2.5715e-114
-2.18872e-113
-8.66597e-114
8.81705e-113
2.96357e-113
-3.53074e-112
-1.04539e-112
1.40642e-111
3.87046e-112
-5.57513e-111
-1.52256e-111
2.19963e-110
6.36994e-111
-8.63685e-110
-2.80384e-110
3.37376e-109
1.27649e-109
-1.31025e-108
-5.91081e-109
5.05449e-108
2.74792e-108
-1.93447e-107
-1.27148e-107
7.33386e-107
5.82425e-107
-2.74874e-106
-2.63287e-106
1.01596e-105
1.17243e-105
-3.69096e-105
-5.13719e-105
1.31226e-104
2.2131e-104
-4.53767e-104
-9.36697e-104
1.5119e-103
3.89192e-103
-4.77959e-103
-1.58581e-102
1.39245e-102
6.3281e-102
-3.49183e-102
-2.46852e-101
5.87514e-102
9.38992e-101
7.02963e-102
-3.47091e-100
-1.38945e-100
1.24056e-99
9.38718e-100
-4.25525e-99
-4.99104e-99
1.38382e-98
2.35545e-98
-4.17445e-98
-1.02719e-97
1.11523e-97
4.20871e-97
-2.30796e-97
-1.6306e-96
1.30205e-97
5.97443e-96
2.22403e-96
-2.05854e-95
-1.76594e-95
6.57992e-95
9.54175e-95
-1.8942e-94
-4.3711e-94
4.55898e-94
1.79854e-93
-6.82624e-94
-6.77345e-93
-1.23948e-93
2.33781e-92
1.74354e-92
-7.29029e-92
-1.03472e-91
1.97048e-91
4.80832e-91
-4.05524e-91
-1.93441e-90
2.33793e-91
6.9168e-90
3.54149e-90
-2.18742e-89
-2.64691e-89
5.87663e-89
1.3081e-88
-1.16107e-88
-5.31453e-88
3.6843e-89
1.85913e-87
1.17703e-87
-5.55896e-87
-8.02751e-87
1.32379e-86
3.71745e-86
-1.77103e-86
-1.40083e-85
-4.55767e-86
4.41604e-85
4.95458e-85
-1.11104e-84
-2.55136e-84
1.7273e-84
9.99446e-84
2.27664e-84
-3.17548e-83
-3.38531e-83
7.82733e-83
1.79123e-82
-1.09692e-82
-6.91636e-82
-2.31645e-82
2.09914e-81
2.6135e-81
-4.64584e-81
-1.28052e-80
3.82059e-81
4.57402e-80
2.93109e-80
-1.23444e-79
-2.11237e-79
2.06708e-79
8.87427e-79
1.70062e-79
-2.73433e-78
-3.20192e-78
5.7771e-78
1.60861e-77
-2.81681e-78
-5.49345e-77
-4.61016e-77
1.30786e-76
2.82071e-76
-1.31493e-76
-1.04306e-75
-6.64337e-76
2.64707e-75
4.92246e-75
-3.22556e-75
-1.9163e-74
-1.03785e-74
4.97084e-74
8.72727e-74
-6.17179e-74
-3.44732e-73
-1.88824e-73
8.76928e-73
1.5848e-72
-9.61559e-73
-6.08079e-72
-3.97243e-72
1.44643e-71
2.9267e-71
-1.0932e-71
-1.04204e-70
-8.94277e-71
2.1759e-70
5.38746e-70
-2.51359e-71
-1.69925e-69
-1.99573e-69
2.79871e-69
9.60875e-69
3.30806e-69
-2.54165e-68
-4.20574e-68
2.48456e-68
1.60284e-67
1.28555e-67
-3.24364e-67
-8.10192e-67
-6.32239e-68
2.38004e-66
3.31058e-66
-2.85218e-66
-1.37951e-65
-9.74093e-66
2.85971e-65
6.78023e-65
5.57707e-66
-1.9615e-64
-2.84466e-64
1.97488e-64
1.12333e-63
9.6605e-64
-2.00668e-63
-5.68488e-63
-2.01983e-63
1.40367e-62
2.59085e-62
-4.6503e-63
-8.33085e-62
-1.06137e-61
9.23439e-62
4.46792e-61
3.80151e-61
-7.5551e-61
-2.22754e-60
-1.08055e-60
4.91221e-60
1.0486e-59
1.38161e-60
-2.84739e-59
-4.70649e-59
1.12811e-59
1.53776e-58
2.02797e-58
-1.33135e-58
-7.91708e-58
-8.43651e-58
9.67944e-58
3.94213e-57
3.40849e-57
-5.94157e-57
-1.91791e-56
-1.3481e-56
3.33168e-56
9.18903e-56
5.28595e-56
-1.76287e-55
-4.36266e-55
-2.09703e-55
8.94673e-55
2.06235e-54
8.66658e-55
-4.39364e-54
-9.74005e-54
-3.85126e-54
2.09695e-53
4.60385e-53
1.87385e-53
-9.73656e-53
-2.17814e-52
-9.90025e-53
4.38922e-52
1.0298e-51
5.52038e-52
-1.91016e-51
-4.84964e-51
-3.14786e-51
7.93733e-51
2.264e-50
1.79211e-50
-3.08445e-50
-1.04113e-49
-1.00307e-49
1.07287e-49
4.67812e-49
5.46701e-49
-2.95781e-49
-2.03187e-48
-2.88202e-48
2.95473e-49
8.40006e-48
1.46073e-47
4.03751e-48
-3.22343e-47
-7.06899e-47
-4.40467e-47
1.0923e-46
3.23513e-46
3.12326e-46
-2.84508e-46
-1.37914e-45
-1.84845e-45
1.92433e-46
5.33014e-45
9.68351e-45
4.31047e-45
-1.76086e-44
-4.55316e-44
-4.12163e-44
4.12935e-44
1.90267e-43
2.62212e-43
8.75477e-45
-6.78688e-43
-1.36245e-42
-8.99428e-43
1.81815e-42
5.99627e-42
7.17615e-42
-1.43366e-42
-2.17752e-41
-4.00981e-41
-2.38095e-41
5.6983e-41
1.78217e-40
2.14008e-40
-2.87375e-41
-6.18062e-40
-1.19548e-39
-8.53024e-40
1.34996e-39
5.01765e-39
6.92276e-39
1.40618e-39
-1.5012e-38
-3.51107e-38
-3.49565e-38
1.70777e-38
1.26357e-37
2.2373e-37
1.49834e-37
-2.5664e-37
-9.33583e-37
-1.34066e-36
-4.83933e-37
2.39453e-36
6.40978e-36
7.7514e-36
4.44745e-37
-1.88218e-35
-4.22042e-35
-4.43736e-35
1.00987e-35
1.35043e-34
2.72069e-34
2.58638e-34
-1.16661e-34
-9.14261e-34
-1.74102e-33
-1.57613e-33
8.68927e-34
5.92651e-33
1.11419e-32
1.02024e-32
-4.96618e-33
-3.68982e-32
-7.13574e-32
-6.99438e-32
1.91691e-32
2.19012e-31
4.54471e-31
4.97691e-31
1.23581e-32
-1.21311e-30
-2.84055e-30
-3.5737e-30
-1.24897e-30
5.97032e-30
1.70613e-29
2.517e-29
1.6827e-29
-2.27279e-29
-9.52828e-29
-1.69187e-28
-1.65719e-28
2.38257e-29
4.65469e-28
1.05246e-27
1.37207e-27
7.0118e-28
-1.68731e-27
-5.78652e-27
-9.8296e-27
-9.59628e-27
8.09799e-28
2.54583e-26
6.00297e-26
8.43242e-26
5.97125e-26
-5.93394e-26
-2.91387e-25
-5.72995e-25
-7.04803e-25
-3.49463e-25
8.46752e-25
2.95184e-24
5.29287e-24
6.04542e-24
2.28813e-24
-8.90431e-24
-2.78882e-23
-4.86307e-23
-5.52255e-23
-2.21225e-23
7.72054e-23
2.49167e-22
4.47412e-22
5.39942e-22
3.02094e-22
-5.25031e-22
-2.07112e-21
-4.05879e-21
-5.47737e-21
-4.39608e-21
1.75999e-21
1.50779e-20
3.49048e-20
5.46907e-20
5.90713e-20
2.3614e-20
-7.91594e-20
-2.63691e-19
-5.03662e-19
-6.97031e-19
-6.38715e-19
-2.93031e-20
1.44017e-18
3.88737e-18
6.90721e-18
9.16139e-18
8.05479e-18
-1.84494e-19
-1.9563e-17
-5.20242e-17
-9.3515e-17
-1.28779e-16
-1.26435e-16
-3.76407e-17
1.96383e-16
6.21368e-16
1.22561e-15
1.873e-15
2.22333e-15
1.66858e-15
-6.60171e-16
-5.73177e-15
-1.41975e-14
-2.56234e-14
-3.7346e-14
-4.30811e-14
-3.16946e-14
1.30523e-14
1.10471e-13
2.76855e-13
5.1335e-13
7.86271e-13
9.99972e-13
9.65851e-13
3.76924e-13
-1.19398e-12
-4.24342e-12
-9.19328e-12
-1.61042e-11
-2.41977e-11
-3.11587e-11
-3.22415e-11
-1.93064e-11
1.99175e-11
1.01793e-10
2.45066e-10
4.66181e-10
7.69853e-10
1.13279e-09
1.47836e-09
1.6404e-09
1.31595e-09
9.85353e-12
-3.02042e-09
-8.80179e-09
-1.86325e-08
-3.39661e-08
-5.61104e-08
-8.56192e-08
-1.21203e-07
-1.57915e-07
-1.84296e-07
-1.78038e-07
-9.96407e-08
1.16631e-07
5.75307e-07
1.43679e-06
2.94009e-06
5.43252e-06
9.40786e-06
1.55545e-05
2.48153e-05
3.84607e-05
5.81768e-05
8.61698e-05
0.000125289
0.000179164
0.000252371
0.000350603
0.000480869
0.000651703
0.000873391
0.0011582
0.0015206
0.00197752
0.00254856
0.00325618
0.00412589
0.00518638
0.00646962
0.00801089
0.00984873
0.0120249
0.014584
0.0175734
0.021043
0.0250441
0.0296299
0.0348536
0.0407689
0.0474283
0.0548828
0.0631805
0.0723662
0.0824802
0.0935572
0.105626
0.118708
0.132817
0.147958
0.164128
0.181313
0.199491
0.21863
0.238687
0.259612
0.281345
0.303816
0.326951
0.350667
0.374874
0.399481
0.424389
0.4495
0.474713
0.499927
0.525044
0.549965
0.574597
0.59885
0.622641
0.645891
0.668528
0.690488
0.711714
0.732157
0.751777
0.77054
0.788422
0.805405
0.82148
0.836643
0.850899
0.864258
0.876734
0.888349
0.899126
0.909095
0.918287
0.926736
0.934477
0.941548
0.947988
0.953834
0.959126
0.963902
0.968199
0.972054
0.975503
0.978579
0.981315
0.983742
0.985888
0.98778
0.989444
0.990903
0.992179
0.993291
0.994257
0.995094
0.995815
0.996433
0.99696
0.997404
0.99776
0.998164
)
;

boundaryField
{
    sides
    {
        type            zeroGradient;
    }
    empty
    {
        type            empty;
    }
}


// ************************************************************************* //
