/*--------------------------------*- C++ -*----------------------------------*\
| =========                 |                                                 |
| \\      /  F ield         | OpenFOAM: The Open Source CFD Toolbox           |
|  \\    /   O peration     | Version:  v2012                                 |
|   \\  /    A nd           | Website:  www.openfoam.com                      |
|    \\/     M anipulation  |                                                 |
\*---------------------------------------------------------------------------*/
FoamFile
{
    version     2.0;
    format      ascii;
    class       volScalarField;
    location    "2";
    object      T;
}
// * * * * * * * * * * * * * * * * * * * * * * * * * * * * * * * * * * * * * //

dimensions      [0 0 0 1 0 0 0];


internalField   nonuniform List<scalar> 
1000
(
1.03492e-282
1.03492e-282
1.03492e-282
1.03492e-282
1.03492e-282
1.03492e-282
1.03492e-282
1.03492e-282
1.03492e-282
1.03492e-282
1.03492e-282
1.03492e-282
1.03492e-282
1.03492e-282
1.03492e-282
1.03492e-282
1.03492e-282
1.03492e-282
1.03492e-282
1.03492e-282
1.03492e-282
1.03492e-282
1.03492e-282
1.03492e-282
1.03492e-282
1.03492e-282
1.03492e-282
1.03492e-282
1.03492e-282
1.03492e-282
1.03492e-282
1.03492e-282
1.03492e-282
1.03492e-282
1.03492e-282
1.03492e-282
1.03492e-282
1.03492e-282
1.03492e-282
1.03492e-282
1.03492e-282
1.03492e-282
1.03492e-282
1.03492e-282
1.03494e-282
1.03504e-282
1.03555e-282
1.03762e-282
1.04525e-282
1.0702e-282
1.1403e-282
1.28885e-282
1.36794e-282
-1.12654e-283
-1.15431e-281
-7.11513e-281
-3.31161e-280
-1.3316e-279
-4.76034e-279
-1.50116e-278
-3.96613e-278
-7.14525e-278
4.39332e-278
1.28389e-276
8.3549e-276
4.07088e-275
1.69591e-274
6.25587e-274
2.04129e-273
5.67098e-273
1.16011e-272
3.27857e-273
-1.35761e-271
-9.90097e-271
-5.03676e-270
-2.1523e-269
-8.09297e-269
-2.68894e-268
-7.64389e-268
-1.64138e-267
-9.67802e-268
1.56977e-266
1.22313e-265
6.35399e-265
2.74309e-264
1.03722e-263
3.45553e-263
9.8233e-263
2.09906e-262
1.15189e-262
-2.06681e-261
-1.59071e-260
-8.20858e-260
-3.51919e-259
-1.31869e-258
-4.33447e-258
-1.20313e-257
-2.41808e-257
-3.27109e-258
3.07267e-256
2.17121e-255
1.08317e-254
4.53138e-254
1.65653e-253
5.27376e-253
1.38653e-252
2.39096e-252
-2.38517e-252
-4.90715e-251
-3.06353e-250
-1.44612e-249
-5.80578e-249
-2.03532e-248
-6.12909e-248
-1.45375e-247
-1.6728e-247
8.27412e-247
7.98059e-246
4.37115e-245
1.92374e-244
7.2936e-244
2.40126e-243
6.59475e-243
1.26811e-242
-2.55023e-243
-1.90144e-241
-1.27239e-240
-6.15674e-240
-2.49856e-239
-8.78445e-239
-2.63268e-238
-6.12259e-238
-6.2078e-238
4.06787e-237
3.63409e-236
1.93857e-235
8.34695e-235
3.08429e-234
9.78251e-234
2.50738e-233
3.87185e-233
-7.57105e-233
-1.04403e-231
-6.11235e-231
-2.76122e-230
-1.05725e-229
-3.47476e-229
-9.38058e-229
-1.68834e-228
1.20829e-228
3.11614e-227
1.96188e-226
9.15119e-226
3.57703e-225
1.19639e-224
3.29896e-224
6.24207e-224
-2.23794e-224
-9.98658e-223
-6.49103e-222
-3.06099e-221
-1.20136e-220
-4.01686e-220
-1.10127e-219
-2.03751e-219
1.0845e-219
3.49548e-218
2.22449e-217
1.03528e-216
4.0068e-216
1.3139e-215
3.47776e-215
5.77039e-215
-7.99254e-215
-1.32134e-213
-7.85583e-213
-3.52439e-212
-1.31969e-211
-4.1508e-211
-1.01924e-210
-1.27067e-210
5.19778e-210
5.22219e-209
2.8186e-208
1.1942e-207
4.23857e-207
1.24181e-206
2.63697e-206
9.82381e-207
-2.89723e-205
-2.07993e-204
-1.00668e-203
-3.95589e-203
-1.29827e-202
-3.37869e-202
-5.16328e-202
1.09121e-201
1.42673e-200
8.08566e-200
3.49154e-199
1.24765e-198
3.64449e-198
7.57225e-198
1.559e-198
-9.1448e-197
-6.31381e-196
-2.98278e-195
-1.14027e-194
-3.59115e-194
-8.60139e-194
-9.02789e-194
5.54419e-193
4.89983e-192
2.51308e-191
1.01218e-190
3.34971e-190
8.65518e-190
1.24925e-189
-3.32194e-189
-3.87575e-188
-2.12162e-187
-8.85053e-187
-3.01319e-186
-8.07059e-186
-1.29916e-185
2.22131e-185
3.20421e-184
1.8164e-183
7.68938e-183
2.63775e-182
7.09134e-182
1.14216e-181
-1.96027e-181
-2.81328e-180
-1.58606e-179
-6.65631e-179
-2.25042e-178
-5.87549e-178
-8.4891e-178
2.27269e-177
2.6178e-176
1.4088e-175
5.71904e-175
1.85896e-174
4.51977e-174
4.74466e-174
-2.91778e-173
-2.53025e-172
-1.25853e-171
-4.82173e-171
-1.46166e-170
-3.08989e-170
-6.53968e-171
3.67343e-169
2.46598e-168
1.10926e-167
3.90754e-167
1.05645e-166
1.65018e-166
-3.32854e-166
-4.32768e-165
-2.3476e-164
-9.39144e-164
-2.93908e-163
-6.48765e-163
-2.87181e-163
6.71341e-162
4.6808e-161
2.11255e-160
7.35042e-160
1.91739e-159
2.57379e-159
-8.79145e-159
-8.986e-158
-4.56732e-157
-1.7259e-156
-4.97621e-156
-8.96231e-156
8.37403e-156
1.70472e-154
9.69553e-154
3.90101e-153
1.19662e-152
2.45351e-152
-1.6187e-153
-3.30474e-151
-2.05791e-150
-8.6237e-150
-2.73203e-149
-5.90177e-149
-1.41401e-149
6.78986e-148
4.42665e-147
1.8812e-146
5.9834e-146
1.28624e-145
2.45968e-146
-1.51273e-144
-9.70304e-144
-4.05621e-143
-1.25649e-142
-2.52915e-142
5.97077e-143
3.6277e-141
2.15621e-140
8.58727e-140
2.49962e-139
4.29332e-139
-5.79646e-139
-9.04826e-138
-4.78061e-137
-1.75582e-136
-4.57345e-136
-5.36348e-136
2.58206e-135
2.24805e-134
1.03094e-133
3.36578e-133
7.19088e-133
5.54221e-134
-8.78637e-132
-5.34148e-131
-2.0873e-130
-5.7284e-130
-7.83832e-130
2.55317e-129
2.50546e-128
1.16609e-127
3.76161e-127
7.61545e-127
-2.18132e-127
-1.08139e-125
-6.08519e-125
-2.22112e-124
-5.42352e-124
-4.0565e-124
4.37263e-123
3.04753e-122
1.22786e-121
3.34477e-121
4.17458e-121
-1.71522e-120
-1.50066e-119
-6.50758e-119
-1.88657e-118
-2.81203e-118
7.02616e-118
7.4239e-117
3.35435e-116
9.9518e-116
1.54647e-115
-3.34217e-115
-3.74266e-114
-1.69136e-113
-4.93674e-113
-7.17412e-113
1.92957e-112
1.92404e-111
8.31119e-111
2.28245e-110
2.65563e-110
-1.24831e-109
-9.93027e-109
-3.92159e-108
-9.56545e-108
-5.69409e-108
8.09911e-107
4.9986e-106
1.7275e-105
3.40374e-105
-1.88303e-105
-4.90349e-104
-2.36149e-103
-6.76739e-103
-8.43392e-103
3.28816e-102
2.65272e-101
9.96333e-101
2.13704e-100
-2.08332e-101
-2.48133e-99
-1.23255e-98
-3.47326e-98
-3.88591e-98
1.85601e-97
1.34425e-96
4.63287e-96
8.29455e-96
-9.095e-96
-1.32727e-94
-5.45929e-94
-1.2274e-93
-1.46224e-94
1.21159e-92
5.8883e-92
1.52193e-91
1.08428e-91
-1.0467e-90
-5.93893e-90
-1.67673e-89
-1.72371e-89
8.82017e-89
5.67804e-88
1.68161e-87
1.97096e-87
-7.49851e-87
-5.18121e-86
-1.54935e-85
-1.83568e-85
6.57264e-85
4.51077e-84
1.31121e-83
1.4196e-83
-5.8934e-83
-3.71896e-82
-1.0121e-81
-8.80545e-82
5.22085e-81
2.86605e-80
7.03409e-80
3.78848e-80
-4.38222e-79
-2.03157e-78
-4.32072e-78
-2.42463e-79
3.36904e-77
1.30242e-76
2.28394e-76
-1.52273e-76
-2.31894e-75
-7.43099e-75
-9.93876e-75
1.87785e-74
1.40921e-73
3.71697e-73
3.21508e-73
-1.48671e-72
-7.50073e-72
-1.60574e-71
-4.78947e-72
9.17878e-71
3.4835e-70
5.88589e-70
-2.64315e-70
-4.68573e-69
-1.41066e-68
-1.7806e-68
2.83295e-68
2.03369e-67
4.99143e-67
4.18532e-67
-1.5938e-66
-7.64098e-66
-1.55077e-65
-6.2031e-66
6.79942e-65
2.52243e-64
4.26637e-64
-2.89861e-65
-2.40498e-63
-7.42069e-63
-1.05356e-62
5.9871e-63
7.33825e-62
1.97359e-61
2.38526e-61
-2.5609e-61
-1.97726e-60
-4.81395e-60
-5.10476e-60
7.65611e-60
4.77814e-59
1.09132e-58
1.07138e-58
-1.82684e-58
-1.04584e-57
-2.32318e-57
-2.27132e-57
3.5761e-57
2.08208e-56
4.66781e-56
4.88969e-56
-5.57045e-56
-3.75916e-55
-8.83774e-55
-1.04635e-54
5.83987e-55
6.07529e-54
1.56269e-53
2.15288e-53
4.66757e-55
-8.5172e-53
-2.53769e-52
-4.12687e-52
-2.21176e-52
9.5799e-52
3.68342e-51
7.17427e-51
7.0666e-51
-6.41568e-51
-4.55412e-50
-1.10045e-49
-1.54398e-49
-4.73792e-50
4.27994e-49
1.43198e-48
2.65809e-48
2.65031e-48
-1.74049e-48
-1.45694e-47
-3.66724e-47
-5.64764e-47
-3.751e-47
8.66225e-47
3.84919e-46
8.33576e-46
1.13162e-45
4.83848e-46
-2.4208e-45
-8.76408e-45
-1.76674e-44
-2.27018e-44
-8.017e-45
5.16833e-44
1.78891e-43
3.57807e-43
4.7035e-43
2.22403e-43
-8.69654e-43
-3.28839e-42
-6.92138e-42
-9.92723e-42
-7.27184e-42
1.00482e-41
5.27969e-41
1.24719e-40
2.03699e-40
2.13405e-40
-2.62984e-42
-6.71664e-40
-1.98713e-39
-3.83129e-39
-5.27566e-39
-3.94086e-39
4.40401e-39
2.51348e-38
6.15336e-38
1.07362e-37
1.34513e-37
7.83167e-38
-1.69916e-37
-7.42441e-37
-1.71361e-36
-2.9188e-36
-3.65442e-36
-2.31002e-36
3.86349e-36
1.83952e-35
4.38811e-35
7.79363e-35
1.0605e-34
9.18079e-35
-3.20585e-35
-3.62885e-34
-1.00084e-33
-1.97034e-33
-3.06235e-33
-3.58329e-33
-2.04406e-33
4.07396e-33
1.81607e-32
4.33658e-32
7.97181e-32
1.18571e-31
1.33872e-31
7.11901e-32
-1.61387e-31
-6.90772e-31
-1.64687e-30
-3.07337e-30
-4.74683e-30
-5.8735e-30
-4.66556e-30
2.12024e-30
1.94356e-29
5.34714e-29
1.09571e-28
1.87199e-28
2.70318e-28
3.11727e-28
2.11254e-28
-2.08678e-28
-1.21934e-27
-3.17067e-27
-6.40285e-27
-1.10184e-26
-1.64238e-26
-2.05366e-26
-1.85799e-26
-1.49328e-27
4.57497e-26
1.45119e-25
3.24129e-25
6.09042e-25
1.00782e-24
1.4758e-24
1.85511e-24
1.7787e-24
5.33376e-25
-3.11076e-24
-1.10698e-23
-2.60254e-23
-5.1234e-23
-8.97384e-23
-1.42443e-22
-2.04235e-22
-2.56993e-22
-2.58065e-22
-1.22662e-22
3.00855e-22
1.2622e-21
3.14245e-21
6.47726e-21
1.19441e-20
2.02641e-20
3.19325e-20
4.66341e-20
6.21216e-20
7.22262e-20
6.35346e-20
1.01268e-20
-1.3435e-19
-4.47994e-19
-1.05579e-18
-2.14817e-18
-4.00069e-18
-6.98851e-18
-1.15823e-17
-1.82998e-17
-2.75642e-17
-3.9388e-17
-5.27385e-17
-6.43559e-17
-6.66474e-17
-4.40698e-17
3.29197e-17
2.17745e-16
6.03552e-16
1.34816e-15
2.71285e-15
5.12171e-15
9.25158e-15
1.61666e-14
2.75177e-14
4.58351e-14
7.49543e-14
1.2063e-13
1.91414e-13
2.99902e-13
4.64495e-13
7.11855e-13
1.08033e-12
1.62468e-12
2.42259e-12
3.58347e-12
5.26058e-12
7.66719e-12
1.10984e-11
1.59602e-11
2.28083e-11
3.2399e-11
4.57566e-11
6.42616e-11
8.97651e-11
1.24738e-10
1.72464e-10
2.37285e-10
3.24923e-10
4.42876e-10
6.00943e-10
8.11863e-10
1.09215e-09
1.46309e-09
1.95208e-09
2.59418e-09
3.43414e-09
4.52887e-09
5.95042e-09
7.7898e-09
1.01615e-08
1.32091e-08
1.7112e-08
2.20938e-08
2.8432e-08
3.64702e-08
4.66323e-08
5.94401e-08
7.55331e-08
9.56938e-08
1.20876e-07
1.5224e-07
1.9119e-07
2.39428e-07
2.99001e-07
3.72373e-07
4.62498e-07
5.72908e-07
7.07813e-07
8.72225e-07
1.07209e-06
1.31443e-06
1.60757e-06
1.96127e-06
2.38702e-06
2.89827e-06
3.51075e-06
4.2428e-06
5.11576e-06
6.15437e-06
7.38732e-06
8.84771e-06
1.05737e-05
1.26093e-05
1.50047e-05
1.78176e-05
2.11139e-05
2.49688e-05
2.94675e-05
3.47069e-05
4.0797e-05
4.78615e-05
5.60406e-05
6.54915e-05
7.63911e-05
8.89375e-05
0.000103352
0.000119883
0.000138805
0.000160425
0.000185082
0.000213154
0.000245055
0.000281245
0.000322229
0.000368562
0.000420852
0.000479765
0.000546028
0.000620435
0.000703849
0.000797208
0.000901527
0.00101791
0.00114753
0.00129169
0.00145175
0.0016292
0.00182561
0.0020427
0.00228226
0.00254624
0.00283668
0.00315577
0.00350582
0.00388928
0.00430874
0.0047669
0.00526665
0.00581098
0.00640305
0.00704616
0.00774374
0.00849938
0.0093168
0.0101999
0.0111526
0.0121791
0.0132836
0.0144706
0.0157446
0.0171101
0.0185718
0.0201347
0.0218035
0.0235833
0.025479
0.0274958
0.0296387
0.031913
0.0343236
0.0368759
0.0395748
0.0424255
0.0454329
0.0486021
0.0519378
0.0554447
0.0591275
0.0629907
0.0670384
0.0712748
0.0757038
0.0803289
0.0851537
0.0901813
0.0954145
0.100856
0.106508
0.112372
0.11845
0.124744
0.131253
0.137979
0.144921
0.15208
0.159454
0.167042
0.174843
0.182854
0.191074
0.199499
0.208126
0.21695
0.225969
0.235177
0.24457
0.254141
0.263885
0.273796
0.283867
0.294091
0.304461
0.314968
0.325606
0.336366
0.347239
0.358216
0.369288
0.380446
0.39168
0.402981
0.414339
0.425743
0.437184
0.448651
0.460134
0.471623
0.483106
0.494574
0.506016
0.517422
0.528782
0.540084
0.551318
0.562476
0.573546
0.584518
0.595382
0.60613
0.616751
0.627236
0.637576
0.647761
0.657784
0.667634
0.677304
0.686786
0.696071
0.705152
0.714021
0.72267
0.731093
0.739282
0.74723
0.754931
0.762379
0.769568
0.776491
0.783142
0.789517
0.79561
0.801416
0.806929
0.812146
0.817062
0.821672
0.825972
0.829959
0.833629
0.836978
0.840004
0.842703
0.845072
0.84711
0.848813
0.85018
0.851208
0.851897
0.852245
0.852251
0.851914
0.851235
0.850212
0.848845
0.847136
0.845086
0.842694
0.839963
0.836895
0.833491
0.829754
0.825687
0.821293
0.816576
0.811539
0.806187
0.800524
0.794557
0.788289
0.781727
0.774877
0.767745
0.760339
0.752666
0.744732
0.736547
0.728118
0.719454
0.710564
0.701457
0.692142
0.68263
0.672929
0.66305
0.653004
0.642801
0.632451
0.621966
0.611356
0.600633
0.589808
0.578891
0.567894
0.556828
0.545705
0.534536
0.523331
0.512101
0.500859
0.489614
0.478376
0.467158
0.455968
0.444817
0.433714
0.42267
0.411693
0.400792
0.389977
0.379256
0.368637
0.358127
0.347734
0.337466
0.327328
0.317327
0.30747
0.297762
0.288208
0.278813
0.269582
0.260518
0.251625
0.242908
0.234367
0.226008
0.217831
0.209838
0.202032
0.194412
0.186981
0.179739
0.172686
0.165821
0.159146
0.152658
0.146357
0.140242
0.134312
0.128565
0.122998
0.117611
0.112401
0.107365
0.102501
0.0978063
0.0932781
0.0889155
0.0847266
0.0807718
)
;

boundaryField
{
    sides
    {
        type            zeroGradient;
    }
    empty
    {
        type            empty;
    }
}


// ************************************************************************* //
