/*--------------------------------*- C++ -*----------------------------------*\
| =========                 |                                                 |
| \\      /  F ield         | OpenFOAM: The Open Source CFD Toolbox           |
|  \\    /   O peration     | Version:  v2012                                 |
|   \\  /    A nd           | Website:  www.openfoam.com                      |
|    \\/     M anipulation  |                                                 |
\*---------------------------------------------------------------------------*/
FoamFile
{
    version     2.0;
    format      ascii;
    class       volScalarField;
    location    "0.001";
    object      mag(U);
}
// * * * * * * * * * * * * * * * * * * * * * * * * * * * * * * * * * * * * * //

dimensions      [0 1 -1 0 0 0 0];


internalField   nonuniform List<scalar> 
100
(
2.29458e-12
4.90133e-13
3.25297e-13
2.90287e-13
1.38725e-12
2.20122e-12
7.87714e-14
9.36505e-13
1.45873e-15
1.25159e-12
2.91746e-15
8.02302e-14
3.15005e-29
1.45873e-13
0
1.45873e-13
3.22878e-29
0
0
0
0
0
0
0
0
0
0
1.31286e-14
4.25949e-13
5.38126e-12
6.87631e-11
7.13602e-10
8.75264e-09
7.83743e-08
8.99197e-07
6.7639e-06
7.23571e-05
0.000438729
0.00437723
0.0198972
0.143976
0.666849
2.62758
8.80365
23.196
50.4457
92.1983
143.601
199.726
250.259
296.622
333.529
360.972
382.632
388.591
371.4
322.09
195.285
47.4769
6.72179
0.48167
0.133242
0.00628925
0.00131274
6.82472e-05
1.12912e-05
5.95402e-07
8.09977e-08
4.20035e-09
4.83917e-10
2.42543e-11
2.32376e-12
6.85604e-14
1.45873e-13
1.45873e-13
3.56632e-29
0
3.10371e-29
1.45873e-13
1.45873e-13
9.73779e-29
3.13992e-13
3.13992e-15
3.10852e-13
1.39173e-28
1.4407e-28
3.13992e-13
3.13992e-15
3.10852e-13
8.01531e-31
3.10852e-13
3.13992e-13
0
6.24843e-13
4.9222e-28
3.10852e-13
6.21704e-13
3.07712e-13
6.24843e-13
3.13992e-13
)
;

boundaryField
{
    sides
    {
        type            calculated;
        value           nonuniform List<scalar> 2(3.13992e-13 2.29458e-12);
    }
    empty
    {
        type            empty;
    }
}


// ************************************************************************* //
