/*--------------------------------*- C++ -*----------------------------------*\
| =========                 |                                                 |
| \\      /  F ield         | OpenFOAM: The Open Source CFD Toolbox           |
|  \\    /   O peration     | Version:  v2012                                 |
|   \\  /    A nd           | Website:  www.openfoam.com                      |
|    \\/     M anipulation  |                                                 |
\*---------------------------------------------------------------------------*/
FoamFile
{
    version     2.0;
    format      ascii;
    class       surfaceScalarField;
    location    "0.001";
    object      phi;
}
// * * * * * * * * * * * * * * * * * * * * * * * * * * * * * * * * * * * * * //

dimensions      [1 0 -1 0 0 0 0];
oriented        oriented;


internalField   nonuniform List<scalar> 
99
(
6.4091e-12
1.49214e-13
1.77636e-13
-2.90612e-12
1.47082e-12
5.14433e-12
-2.84217e-12
-1.25056e-12
-3.44613e-12
-1.97531e-12
-2.98428e-13
-1.06581e-13
-2.62901e-13
-3.2685e-13
3.2685e-13
2.62901e-13
0
0
0
0
0
0
0
0
0
0
7.10543e-15
6.11067e-13
8.46256e-12
1.07455e-10
1.16483e-09
1.39623e-08
1.33223e-07
1.46962e-06
1.20896e-05
0.000121373
0.000838453
0.0075453
0.04214
0.317021
0.978745
4.08427
14.852
45.3263
101.986
186.199
277.256
347.519
396.527
433.035
419.478
376.176
315.501
264.148
245.799
232.052
184.357
37.6834
6.4592
1.5608
0.138315
0.0255606
0.0015997
0.000253228
1.60338e-05
2.15846e-06
1.31642e-07
1.52606e-08
8.85032e-10
8.96909e-11
4.8872e-12
4.09894e-13
-3.01981e-14
0
3.73035e-14
0
0
-3.10862e-14
-1.33227e-15
2.26485e-14
-3.19744e-14
-4.21885e-14
4.44089e-14
3.19744e-14
0
-3.19744e-14
-4.30767e-14
4.35207e-14
3.19744e-14
-3.10862e-14
-7.9492e-14
-3.4639e-14
7.99361e-14
7.19425e-14
-3.24185e-14
-1.14575e-13
-3.86358e-14
1.12799e-13
1.14575e-13
)
;

boundaryField
{
    sides
    {
        type            calculated;
        value           nonuniform List<scalar> 2(7.2032e-14 -9.05129e-12);
    }
    empty
    {
        type            empty;
        value           nonuniform List<scalar> 0();
    }
}


// ************************************************************************* //
