/*--------------------------------*- C++ -*----------------------------------*\
| =========                 |                                                 |
| \\      /  F ield         | OpenFOAM: The Open Source CFD Toolbox           |
|  \\    /   O peration     | Version:  v2012                                 |
|   \\  /    A nd           | Website:  www.openfoam.com                      |
|    \\/     M anipulation  |                                                 |
\*---------------------------------------------------------------------------*/
FoamFile
{
    version     2.0;
    format      ascii;
    class       volVectorField;
    location    "0.001";
    object      U;
}
// * * * * * * * * * * * * * * * * * * * * * * * * * * * * * * * * * * * * * //

dimensions      [0 1 -1 0 0 0 0];


internalField   nonuniform List<vector> 
100
(
(2.29458e-12 0 0)
(4.90133e-13 0 0)
(-3.25297e-13 0 0)
(2.90287e-13 0 0)
(-1.38725e-12 0 0)
(2.20122e-12 0 0)
(-7.87714e-14 0 0)
(-9.36505e-13 0 0)
(-1.45873e-15 0 0)
(-1.25159e-12 0 0)
(-2.91746e-15 0 0)
(-8.02302e-14 0 0)
(-3.15005e-29 0 0)
(-1.45873e-13 0 0)
(0 0 0)
(1.45873e-13 0 0)
(3.22878e-29 0 0)
(0 0 0)
(0 0 0)
(0 0 0)
(0 0 0)
(0 0 0)
(0 0 0)
(0 0 0)
(0 0 0)
(0 0 0)
(0 0 0)
(1.31286e-14 0 0)
(4.25949e-13 0 0)
(5.38126e-12 0 0)
(6.87631e-11 0 0)
(7.13602e-10 0 0)
(8.75264e-09 0 0)
(7.83743e-08 0 0)
(8.99197e-07 0 0)
(6.7639e-06 0 0)
(7.23571e-05 0 0)
(0.000438729 0 0)
(0.00437723 0 0)
(0.0198972 0 0)
(0.143976 0 0)
(0.666849 0 0)
(2.62758 0 0)
(8.80365 0 0)
(23.196 0 0)
(50.4457 0 0)
(92.1983 0 0)
(143.601 0 0)
(199.726 0 0)
(250.259 0 0)
(296.622 0 0)
(333.529 0 0)
(360.972 0 0)
(382.632 0 0)
(388.591 0 0)
(371.4 0 0)
(322.09 0 0)
(195.285 0 0)
(47.4769 0 0)
(6.72179 0 0)
(0.48167 0 0)
(0.133242 0 0)
(0.00628925 0 0)
(0.00131274 0 0)
(6.82472e-05 0 0)
(1.12912e-05 0 0)
(5.95402e-07 0 0)
(8.09977e-08 0 0)
(4.20035e-09 0 0)
(4.83917e-10 0 0)
(2.42543e-11 0 0)
(2.32376e-12 0 0)
(6.85604e-14 0 0)
(-1.45873e-13 0 0)
(1.45873e-13 0 0)
(3.56632e-29 0 0)
(0 0 0)
(-3.10371e-29 0 0)
(-1.45873e-13 0 0)
(1.45873e-13 0 0)
(-9.73779e-29 0 0)
(-3.13992e-13 0 0)
(3.13992e-15 0 0)
(3.10852e-13 0 0)
(1.39173e-28 0 0)
(-1.4407e-28 0 0)
(-3.13992e-13 0 0)
(3.13992e-15 0 0)
(3.10852e-13 0 0)
(-8.01531e-31 0 0)
(-3.10852e-13 0 0)
(-3.13992e-13 0 0)
(0 0 0)
(6.24843e-13 0 0)
(4.9222e-28 0 0)
(-3.10852e-13 0 0)
(-6.21704e-13 0 0)
(3.07712e-13 0 0)
(6.24843e-13 0 0)
(3.13992e-13 0 0)
)
;

boundaryField
{
    sides
    {
        type            zeroGradient;
    }
    empty
    {
        type            empty;
    }
}


// ************************************************************************* //
