/*--------------------------------*- C++ -*----------------------------------*\
| =========                 |                                                 |
| \\      /  F ield         | OpenFOAM: The Open Source CFD Toolbox           |
|  \\    /   O peration     | Version:  v2012                                 |
|   \\  /    A nd           | Website:  www.openfoam.com                      |
|    \\/     M anipulation  |                                                 |
\*---------------------------------------------------------------------------*/
FoamFile
{
    version     2.0;
    format      ascii;
    class       volScalarField;
    location    "0.1";
    object      T;
}
// * * * * * * * * * * * * * * * * * * * * * * * * * * * * * * * * * * * * * //

dimensions      [0 0 0 1 0 0 0];


internalField   nonuniform List<scalar> 
1000
(
0
0
0
0
0
0
0
0
0
0
0
0
0
0
0
0
0
0
0
0
0
0
0
0
0
0
0
0
0
0
0
0
0
0
0
0
0
0
0
0
0
0
0
0
0
0
0
0
0
0
0
0
0
0
0
0
0
0
0
0
0
0
0
0
0
0
0
0
0
0
0
0
0
0
0
0
0
0
0
0
0
0
0
0
0
0
0
0
0
0
0
0
0
0
0
0
0
0
0
0
0
0
0
0
0
0
0
0
0
0
0
0
0
0
0
0
0
0
0
0
0
0
0
0
0
0
0
0
0
0
0
0
0
0
0
0
0
0
0
0
0
0
0
0
0
0
0
0
0
0
0
0
0
0
0
0
0
0
0
0
0
0
0
0
0
0
0
0
0
0
0
0
0
0
0
0
0
0
0
0
0
0
0
0
0
0
0
0
0
0
0
0
0
0
0
0
0
0
0
0
0
0
0
0
0
0
0
0
0
0
0
0
0
0
0
0
0
0
0
0
0
0
0
0
0
0
0
0
0
0
0
0
0
0
0
0
0
0
0
0
0
0
0
0
0
0
0
0
0
0
0
0
0
0
0
0
0
0
0
0
0
0
0
0
0
0
0
0
0
0
0
0
0
0
0
0
0
0
0
0
0
0
0
0
0
0
0
0
0
0
0
0
0
0
0
0
0
0
0
0
0
0
0
0
0
0
0
0
0
0
0
0
0
0
0
0
0
0
0
0
0
0
0
0
0
0
0
0
0
0
0
0
0
0
0
0
0
0
0
0
0
0
0
0
0
0
0
0
0
0
0
0
0
0
0
0
0
0
0
0
0
0
0
0
0
0
0
0
0
0
0
0
0
0
0
0
0
0
0
0
0
0
0
0
0
0
0
0
0
0
0
0
0
0
0
0
0
0
0
0
0
0
0
0
0
0
0
0
0
0
0
0
0
0
0
0
0
0
0
0
0
0
0
0
0
0
0
0
0
0
0
0
0
0
0
0
0
0
0
0
0
0
0
0
0
0
0
0
0
0
0.000300729
0.00230559
0.00932259
0.0264753
0.0593512
0.111953
0.18501
0.275463
0.377222
0.482749
0.58476
0.677496
0.757353
0.822876
0.874358
0.913256
0.941619
0.96164
0.975358
0.984504
0.990448
0.994223
0.996567
0.997994
0.998847
0.999347
0.999635
0.999799
0.999891
0.999941
0.999969
0.999984
0.999991
0.999996
0.999998
0.999999
0.999999
1
1
1
1
1
1
1
1
1
1
1
1
1
1
1
1
1
1
1
1
1
1
1
1
1
1
1
1
1
1
1
1
1
1
1
1
1
1
1
1
1
1
1
1
1
1
1
1
1
1
1
1
1
1
1
1
1
1
1
1
1
1
1
0.999699
0.997694
0.990677
0.973525
0.940649
0.888047
0.81499
0.724537
0.622778
0.517251
0.41524
0.322504
0.242647
0.177124
0.125642
0.0867438
0.0583807
0.0383597
0.0246416
0.0154962
0.00955173
0.00577744
0.00343281
0.00200564
0.0011533
0.000653264
0.000364781
0.000200951
0.000109284
5.87096e-05
3.11745e-05
1.63706e-05
8.50611e-06
4.37524e-06
2.22881e-06
1.12493e-06
5.62767e-07
2.79154e-07
1.37348e-07
6.70505e-08
3.24877e-08
1.56278e-08
7.46548e-09
3.5425e-09
1.67017e-09
7.82546e-10
3.64463e-10
1.68764e-10
7.771e-11
3.55897e-11
1.62144e-11
7.34982e-12
3.31532e-12
1.48837e-12
6.65122e-13
2.95906e-13
1.31077e-13
5.78196e-14
2.54012e-14
1.11151e-14
4.84507e-15
2.10409e-15
9.1043e-16
3.92548e-16
1.68672e-16
7.22335e-17
3.08329e-17
1.31193e-17
5.56489e-18
2.35338e-18
9.92308e-19
4.17207e-19
1.7492e-19
7.31368e-20
3.0498e-20
1.26845e-20
5.26219e-21
2.17759e-21
8.98934e-22
3.70207e-22
1.52107e-22
6.23539e-23
2.55041e-23
1.0409e-23
4.23914e-24
1.72282e-24
6.98733e-25
2.82821e-25
1.1425e-25
4.60646e-26
1.85377e-26
7.44632e-27
2.98565e-27
1.19499e-27
4.77451e-28
1.90437e-28
7.58301e-29
3.01451e-29
1.19643e-29
4.741e-30
1.87574e-30
7.40987e-31
2.92277e-31
1.15116e-31
4.52735e-32
1.77801e-32
6.97288e-33
2.73081e-33
1.06803e-33
4.17151e-34
1.62718e-34
6.33891e-35
2.46629e-35
9.58364e-36
3.71949e-36
1.44182e-36
5.58241e-37
2.15885e-37
8.33919e-38
3.2176e-38
1.24009e-38
4.77416e-39
1.83598e-39
7.05305e-40
2.70662e-40
1.0376e-40
3.97361e-41
1.52021e-41
5.81022e-42
2.21848e-42
8.46252e-43
3.22501e-43
1.22788e-43
4.67065e-44
1.77502e-44
6.73968e-45
2.55676e-45
9.69083e-46
3.66992e-46
1.38862e-46
5.24981e-47
1.9831e-47
7.48495e-48
2.82282e-48
1.06373e-48
4.00532e-49
1.50697e-49
5.66554e-50
2.12837e-50
7.98968e-51
2.99702e-51
1.1234e-51
4.20789e-52
1.57502e-52
5.89117e-53
2.20199e-53
8.22493e-54
3.07011e-54
1.14521e-54
4.26901e-55
1.59033e-55
5.92058e-56
2.20274e-56
8.1901e-57
3.04329e-57
1.13013e-57
4.19421e-58
1.55564e-58
5.76643e-59
2.13624e-59
7.9093e-60
2.92669e-60
1.08235e-60
4.00047e-61
1.47779e-61
5.456e-62
2.01325e-62
7.42485e-63
2.73681e-63
1.00826e-63
3.71253e-64
1.36629e-64
5.02567e-65
1.84767e-65
6.78947e-66
2.49363e-66
9.15404e-67
3.35879e-67
1.23181e-67
4.51539e-68
1.65441e-68
6.05879e-69
2.21783e-69
8.11467e-70
2.96767e-70
1.08484e-70
3.96389e-71
1.44772e-71
5.28517e-72
1.92861e-72
7.03468e-73
2.56483e-73
9.3474e-74
3.40519e-74
1.23997e-74
4.51342e-75
1.64219e-75
5.97263e-76
2.17137e-76
7.89101e-77
2.86656e-77
1.04093e-77
3.77845e-78
1.37101e-78
4.97285e-79
1.80304e-79
6.53501e-80
2.3677e-80
8.57531e-81
3.10467e-81
1.12364e-81
4.0652e-82
1.47023e-82
5.31542e-83
1.92105e-83
6.94053e-84
2.50667e-84
9.05016e-85
3.26641e-85
1.17853e-85
4.25076e-86
1.53268e-86
5.52455e-87
1.99068e-87
7.17084e-88
2.58226e-88
9.29598e-89
3.34545e-89
1.2036e-89
4.32887e-90
1.55645e-90
5.59458e-91
2.01034e-91
7.22174e-92
2.59351e-92
9.31123e-93
3.34196e-93
1.19914e-93
4.30146e-94
1.54255e-94
5.53019e-95
1.98208e-95
7.10201e-96
2.54403e-96
9.1106e-97
3.26177e-97
1.16746e-97
4.17752e-98
1.49444e-98
5.34473e-99
1.911e-99
6.83096e-100
2.44114e-100
8.72154e-101
3.11518e-101
1.11241e-101
3.97137e-102
1.41745e-102
5.05786e-103
1.80435e-103
6.43534e-104
2.29465e-104
8.1801e-105
2.9154e-105
1.03881e-105
3.70059e-106
1.31797e-106
4.69291e-107
1.67062e-107
5.94589e-108
2.11571e-108
7.52661e-109
2.67699e-109
9.51911e-110
3.38417e-110
1.20285e-110
4.27444e-111
1.51863e-111
5.39429e-112
1.91568e-112
6.80174e-113
2.4145e-113
8.56926e-114
3.04068e-114
1.07872e-114
3.82611e-115
1.35681e-115
4.81053e-116
1.70522e-116
6.0434e-117
2.14139e-117
7.58625e-118
2.68703e-118
9.51558e-119
3.3691e-119
1.19264e-119
4.22107e-120
1.49367e-120
5.28449e-121
1.86927e-121
6.6109e-122
2.3376e-122
8.26416e-123
2.92112e-123
1.03234e-123
3.64767e-124
1.28864e-124
4.55168e-125
1.60744e-125
5.67574e-126
2.00371e-126
7.07246e-127
2.49593e-127
8.80684e-128
3.10695e-128
1.09591e-128
3.86494e-129
1.36282e-129
4.80464e-130
1.6936e-130
5.96887e-131
2.1033e-131
7.41039e-132
2.61042e-132
9.19411e-133
3.23773e-133
1.13999e-133
4.01324e-134
1.4126e-134
4.97139e-135
1.74932e-135
6.1545e-136
2.16496e-136
7.6145e-137
2.67773e-137
9.41515e-138
3.30996e-138
1.16346e-138
4.08903e-139
1.43689e-139
5.04849e-140
1.77353e-140
6.22946e-141
2.18777e-141
7.68228e-142
2.69722e-142
9.46852e-143
3.32343e-143
1.16635e-143
4.09273e-144
1.43594e-144
5.03731e-145
1.76686e-145
6.1965e-146
2.17286e-146
7.61831e-147
2.67071e-147
9.36135e-148
3.28089e-148
1.14971e-148
4.02834e-149
1.41126e-149
4.94349e-150
1.73142e-150
6.06342e-151
2.12313e-151
7.43325e-152
2.60212e-152
9.10794e-153
3.18756e-153
1.11543e-153
3.90278e-154
1.36537e-154
4.77613e-155
1.6705e-155
5.84205e-156
2.04282e-156
7.1424e-157
2.49693e-157
8.72802e-158
3.05052e-158
1.06606e-158
3.72509e-159
1.3015e-159
4.54672e-160
1.58819e-160
5.54699e-161
1.93715e-161
6.76423e-162
2.3617e-162
8.24485e-163
2.878e-163
1.0045e-163
3.50561e-164
1.22328e-164
4.26819e-165
1.48906e-165
5.19438e-166
1.81179e-166
6.3188e-167
2.20351e-167
7.68333e-168
2.67878e-168
9.33854e-169
3.25518e-169
1.13455e-169
3.95394e-170
1.37781e-170
4.80071e-171
1.67253e-171
5.82641e-172
2.02947e-172
7.06837e-173
2.46157e-173
8.5716e-174
2.98448e-174
1.03904e-174
3.61702e-175
1.259e-175
4.38189e-176
1.52494e-176
5.30642e-177
1.84633e-177
6.42352e-178
2.23458e-178
7.77281e-179
2.70345e-179
9.40193e-180
3.26945e-180
1.13682e-180
3.95247e-181
1.37406e-181
4.77639e-182
1.66018e-182
5.76994e-183
2.00515e-183
6.9676e-184
2.42092e-184
8.4108e-185
2.92183e-185
)
;

boundaryField
{
    sides
    {
        type            inletOutlet;
        inletValue      uniform 0;
        value           nonuniform List<scalar> 2(2.92183e-185 0);
    }
    empty
    {
        type            empty;
    }
}


// ************************************************************************* //
