-4.995 	348.432 	4.11362e-12 	100000
-4.994 	348.432 	4.11362e-12 	100000
-4.993 	348.432 	4.11362e-12 	100000
-4.992 	348.432 	4.11362e-12 	100000
-4.991 	348.432 	4.11362e-12 	100000
-4.99 	348.432 	4.11362e-12 	100000
-4.98901 	348.432 	4.11362e-12 	100000
-4.98801 	348.432 	4.11362e-12 	100000
-4.98701 	348.432 	4.11362e-12 	100000
-4.98601 	348.432 	4.11362e-12 	100000
-4.98501 	348.432 	4.11362e-12 	100000
-4.98401 	348.432 	4.11362e-12 	100000
-4.98301 	348.432 	4.11362e-12 	100000
-4.98201 	348.432 	4.11362e-12 	100000
-4.98101 	348.432 	4.11362e-12 	100000
-4.98001 	348.432 	4.11362e-12 	100000
-4.97901 	348.432 	4.11362e-12 	100000
-4.97802 	348.432 	4.11362e-12 	100000
-4.97702 	348.432 	4.11362e-12 	100000
-4.97602 	348.432 	4.11362e-12 	100000
-4.97502 	348.432 	4.11362e-12 	100000
-4.97402 	348.432 	4.11362e-12 	100000
-4.97302 	348.432 	4.11362e-12 	100000
-4.97202 	348.432 	4.11362e-12 	100000
-4.97102 	348.432 	4.11362e-12 	100000
-4.97002 	348.432 	4.11362e-12 	100000
-4.96902 	348.432 	4.11362e-12 	100000
-4.96802 	348.432 	4.11362e-12 	100000
-4.96703 	348.432 	4.11362e-12 	100000
-4.96603 	348.432 	4.11362e-12 	100000
-4.96503 	348.432 	4.11362e-12 	100000
-4.96403 	348.432 	4.11362e-12 	100000
-4.96303 	348.432 	4.11362e-12 	100000
-4.96203 	348.432 	4.11362e-12 	100000
-4.96103 	348.432 	4.11362e-12 	100000
-4.96003 	348.432 	4.11362e-12 	100000
-4.95903 	348.432 	4.11362e-12 	100000
-4.95803 	348.432 	4.11362e-12 	100000
-4.95703 	348.432 	4.11362e-12 	100000
-4.95604 	348.432 	4.11362e-12 	100000
-4.95504 	348.432 	4.11362e-12 	100000
-4.95404 	348.432 	4.11362e-12 	100000
-4.95304 	348.432 	4.11362e-12 	100000
-4.95204 	348.432 	4.11362e-12 	100000
-4.95104 	348.432 	4.11362e-12 	100000
-4.95004 	348.432 	4.11362e-12 	100000
-4.94904 	348.432 	4.12216e-12 	100000
-4.94804 	348.432 	4.13107e-12 	100000
-4.94704 	348.432 	4.13997e-12 	100000
-4.94604 	348.432 	4.14888e-12 	100000
-4.94505 	348.432 	4.15778e-12 	100000
-4.94405 	348.432 	4.16669e-12 	100000
-4.94305 	348.432 	4.17559e-12 	100000
-4.94205 	348.432 	4.1845e-12 	100000
-4.94105 	348.432 	4.1934e-12 	100000
-4.94005 	348.432 	4.20231e-12 	100000
-4.93905 	348.432 	4.21121e-12 	100000
-4.93805 	348.432 	4.22012e-12 	100000
-4.93705 	348.432 	4.22902e-12 	100000
-4.93605 	348.432 	4.23793e-12 	100000
-4.93505 	348.432 	4.24683e-12 	100000
-4.93405 	348.432 	4.25574e-12 	100000
-4.93306 	348.432 	4.26464e-12 	100000
-4.93206 	348.432 	4.27354e-12 	100000
-4.93106 	348.432 	4.28245e-12 	100000
-4.93006 	348.432 	4.29135e-12 	100000
-4.92906 	348.432 	4.30026e-12 	100000
-4.92806 	348.432 	4.30916e-12 	100000
-4.92706 	348.432 	4.31807e-12 	100000
-4.92606 	348.432 	4.32697e-12 	100000
-4.92506 	348.432 	4.33588e-12 	100000
-4.92406 	348.432 	4.34478e-12 	100000
-4.92306 	348.432 	4.35369e-12 	100000
-4.92207 	348.432 	4.36259e-12 	100000
-4.92107 	348.432 	4.3715e-12 	100000
-4.92007 	348.432 	4.3804e-12 	100000
-4.91907 	348.432 	4.38931e-12 	100000
-4.91807 	348.432 	4.39821e-12 	100000
-4.91707 	348.432 	4.40712e-12 	100000
-4.91607 	348.432 	4.41602e-12 	100000
-4.91507 	348.432 	4.42493e-12 	100000
-4.91407 	348.432 	4.43383e-12 	100000
-4.91307 	348.432 	4.44274e-12 	100000
-4.91207 	348.432 	4.45164e-12 	100000
-4.91108 	348.432 	4.46055e-12 	100000
-4.91008 	348.432 	4.46945e-12 	100000
-4.90908 	348.432 	4.47835e-12 	100000
-4.90808 	348.432 	4.48726e-12 	100000
-4.90708 	348.432 	4.49616e-12 	100000
-4.90608 	348.432 	4.50507e-12 	100000
-4.90508 	348.432 	4.51397e-12 	100000
-4.90408 	348.432 	4.52288e-12 	100000
-4.90308 	348.432 	4.53178e-12 	100000
-4.90208 	348.432 	4.54069e-12 	100000
-4.90108 	348.432 	4.54959e-12 	100000
-4.90009 	348.432 	4.5585e-12 	100000
-4.89909 	348.432 	4.5674e-12 	100000
-4.89809 	348.432 	4.57631e-12 	100000
-4.89709 	348.432 	4.58521e-12 	100000
-4.89609 	348.432 	4.59412e-12 	100000
-4.89509 	348.432 	4.60302e-12 	100000
-4.89409 	348.432 	4.61193e-12 	100000
-4.89309 	348.432 	4.62083e-12 	100000
-4.89209 	348.432 	4.62974e-12 	100000
-4.89109 	348.432 	4.63864e-12 	100000
-4.89009 	348.432 	4.64755e-12 	100000
-4.8891 	348.432 	4.65645e-12 	100000
-4.8881 	348.432 	4.66536e-12 	100000
-4.8871 	348.432 	4.67426e-12 	100000
-4.8861 	348.432 	4.68316e-12 	100000
-4.8851 	348.432 	4.69207e-12 	100000
-4.8841 	348.432 	4.70097e-12 	100000
-4.8831 	348.432 	4.70988e-12 	100000
-4.8821 	348.432 	4.71878e-12 	100000
-4.8811 	348.432 	4.72769e-12 	100000
-4.8801 	348.432 	4.73659e-12 	100000
-4.8791 	348.432 	4.7455e-12 	100000
-4.87811 	348.432 	4.7544e-12 	100000
-4.87711 	348.432 	4.76331e-12 	100000
-4.87611 	348.432 	4.77221e-12 	100000
-4.87511 	348.432 	4.78112e-12 	100000
-4.87411 	348.432 	4.79002e-12 	100000
-4.87311 	348.432 	4.79893e-12 	100000
-4.87211 	348.432 	4.80783e-12 	100000
-4.87111 	348.432 	4.81674e-12 	100000
-4.87011 	348.432 	4.82564e-12 	100000
-4.86911 	348.432 	4.83455e-12 	100000
-4.86811 	348.432 	4.84345e-12 	100000
-4.86712 	348.432 	4.85236e-12 	100000
-4.86612 	348.432 	4.86126e-12 	100000
-4.86512 	348.432 	4.87017e-12 	100000
-4.86412 	348.432 	4.87907e-12 	100000
-4.86312 	348.432 	4.88797e-12 	100000
-4.86212 	348.432 	4.89688e-12 	100000
-4.86112 	348.432 	4.90578e-12 	100000
-4.86012 	348.432 	4.91469e-12 	100000
-4.85912 	348.432 	4.92359e-12 	100000
-4.85812 	348.432 	4.9325e-12 	100000
-4.85712 	348.432 	4.9414e-12 	100000
-4.85613 	348.432 	4.95031e-12 	100000
-4.85513 	348.432 	4.95921e-12 	100000
-4.85413 	348.432 	4.96812e-12 	100000
-4.85313 	348.432 	4.97702e-12 	100000
-4.85213 	348.432 	4.98593e-12 	100000
-4.85113 	348.432 	4.99483e-12 	100000
-4.85013 	348.432 	5.00374e-12 	100000
-4.84913 	348.432 	5.00007e-12 	100000
-4.84813 	348.432 	4.99452e-12 	100000
-4.84713 	348.432 	4.98897e-12 	100000
-4.84613 	348.432 	4.98341e-12 	100000
-4.84514 	348.432 	4.97786e-12 	100000
-4.84414 	348.432 	4.97231e-12 	100000
-4.84314 	348.432 	4.96676e-12 	100000
-4.84214 	348.432 	4.9612e-12 	100000
-4.84114 	348.432 	4.95565e-12 	100000
-4.84014 	348.432 	4.9501e-12 	100000
-4.83914 	348.432 	4.94455e-12 	100000
-4.83814 	348.432 	4.93899e-12 	100000
-4.83714 	348.432 	4.93344e-12 	100000
-4.83614 	348.432 	4.92789e-12 	100000
-4.83514 	348.432 	4.92233e-12 	100000
-4.83414 	348.432 	4.91678e-12 	100000
-4.83315 	348.432 	4.91123e-12 	100000
-4.83215 	348.432 	4.90568e-12 	100000
-4.83115 	348.432 	4.90012e-12 	100000
-4.83015 	348.432 	4.89457e-12 	100000
-4.82915 	348.432 	4.88902e-12 	100000
-4.82815 	348.432 	4.88347e-12 	100000
-4.82715 	348.432 	4.87791e-12 	100000
-4.82615 	348.432 	4.87236e-12 	100000
-4.82515 	348.432 	4.86681e-12 	100000
-4.82415 	348.432 	4.86126e-12 	100000
-4.82315 	348.432 	4.8557e-12 	100000
-4.82216 	348.432 	4.85015e-12 	100000
-4.82116 	348.432 	4.8446e-12 	100000
-4.82016 	348.432 	4.83904e-12 	100000
-4.81916 	348.432 	4.83349e-12 	100000
-4.81816 	348.432 	4.82794e-12 	100000
-4.81716 	348.432 	4.82239e-12 	100000
-4.81616 	348.432 	4.81683e-12 	100000
-4.81516 	348.432 	4.81128e-12 	100000
-4.81416 	348.432 	4.80573e-12 	100000
-4.81316 	348.432 	4.80018e-12 	100000
-4.81216 	348.432 	4.79462e-12 	100000
-4.81117 	348.432 	4.78907e-12 	100000
-4.81017 	348.432 	4.78352e-12 	100000
-4.80917 	348.432 	4.77796e-12 	100000
-4.80817 	348.432 	4.77241e-12 	100000
-4.80717 	348.432 	4.76686e-12 	100000
-4.80617 	348.432 	4.76131e-12 	100000
-4.80517 	348.432 	4.75575e-12 	100000
-4.80417 	348.432 	4.7502e-12 	100000
-4.80317 	348.432 	4.74465e-12 	100000
-4.80217 	348.432 	4.7391e-12 	100000
-4.80117 	348.432 	4.73354e-12 	100000
-4.80018 	348.432 	4.72799e-12 	100000
-4.79918 	348.432 	4.72244e-12 	100000
-4.79818 	348.432 	4.71689e-12 	100000
-4.79718 	348.432 	4.71133e-12 	100000
-4.79618 	348.432 	4.70578e-12 	100000
-4.79518 	348.432 	4.70023e-12 	100000
-4.79418 	348.432 	4.69467e-12 	100000
-4.79318 	348.432 	4.68912e-12 	100000
-4.79218 	348.432 	4.68357e-12 	100000
-4.79118 	348.432 	4.67802e-12 	100000
-4.79018 	348.432 	4.67246e-12 	100000
-4.78919 	348.432 	4.66691e-12 	100000
-4.78819 	348.432 	4.66136e-12 	100000
-4.78719 	348.432 	4.65581e-12 	100000
-4.78619 	348.432 	4.65025e-12 	100000
-4.78519 	348.432 	4.6447e-12 	100000
-4.78419 	348.432 	4.63915e-12 	100000
-4.78319 	348.432 	4.63359e-12 	100000
-4.78219 	348.432 	4.62804e-12 	100000
-4.78119 	348.432 	4.62249e-12 	100000
-4.78019 	348.432 	4.61694e-12 	100000
-4.77919 	348.432 	4.61138e-12 	100000
-4.7782 	348.432 	4.60583e-12 	100000
-4.7772 	348.432 	4.60028e-12 	100000
-4.7762 	348.432 	4.59473e-12 	100000
-4.7752 	348.432 	4.58917e-12 	100000
-4.7742 	348.432 	4.58362e-12 	100000
-4.7732 	348.432 	4.57807e-12 	100000
-4.7722 	348.432 	4.57251e-12 	100000
-4.7712 	348.432 	4.56696e-12 	100000
-4.7702 	348.432 	4.56141e-12 	100000
-4.7692 	348.432 	4.55586e-12 	100000
-4.7682 	348.432 	4.5503e-12 	100000
-4.76721 	348.432 	4.54475e-12 	100000
-4.76621 	348.432 	4.5392e-12 	100000
-4.76521 	348.432 	4.53365e-12 	100000
-4.76421 	348.432 	4.52809e-12 	100000
-4.76321 	348.432 	4.52254e-12 	100000
-4.76221 	348.432 	4.51699e-12 	100000
-4.76121 	348.432 	4.51144e-12 	100000
-4.76021 	348.432 	4.50588e-12 	100000
-4.75921 	348.432 	4.50033e-12 	100000
-4.75821 	348.432 	4.49478e-12 	100000
-4.75721 	348.432 	4.48922e-12 	100000
-4.75622 	348.432 	4.48367e-12 	100000
-4.75522 	348.432 	4.47812e-12 	100000
-4.75422 	348.432 	4.47257e-12 	100000
-4.75322 	348.432 	4.46701e-12 	100000
-4.75222 	348.432 	4.46146e-12 	100000
-4.75122 	348.432 	4.45591e-12 	100000
-4.75022 	348.432 	4.45036e-12 	100000
-4.74922 	348.432 	4.45621e-12 	100000
-4.74822 	348.432 	4.46529e-12 	100000
-4.74722 	348.432 	4.47437e-12 	100000
-4.74622 	348.432 	4.48344e-12 	100000
-4.74523 	348.432 	4.49252e-12 	100000
-4.74423 	348.432 	4.5016e-12 	100000
-4.74323 	348.432 	4.51068e-12 	100000
-4.74223 	348.432 	4.51976e-12 	100000
-4.74123 	348.432 	4.52884e-12 	100000
-4.74023 	348.432 	4.53792e-12 	100000
-4.73923 	348.432 	4.547e-12 	100000
-4.73823 	348.432 	4.55608e-12 	100000
-4.73723 	348.432 	4.56516e-12 	100000
-4.73623 	348.432 	4.57424e-12 	100000
-4.73523 	348.432 	4.58332e-12 	100000
-4.73423 	348.432 	4.5924e-12 	100000
-4.73324 	348.432 	4.60148e-12 	100000
-4.73224 	348.432 	4.61056e-12 	100000
-4.73124 	348.432 	4.61964e-12 	100000
-4.73024 	348.432 	4.62872e-12 	100000
-4.72924 	348.432 	4.6378e-12 	100000
-4.72824 	348.432 	4.64688e-12 	100000
-4.72724 	348.432 	4.65596e-12 	100000
-4.72624 	348.432 	4.66504e-12 	100000
-4.72524 	348.432 	4.67412e-12 	100000
-4.72424 	348.432 	4.6832e-12 	100000
-4.72324 	348.432 	4.69228e-12 	100000
-4.72225 	348.432 	4.70136e-12 	100000
-4.72125 	348.432 	4.71044e-12 	100000
-4.72025 	348.432 	4.71952e-12 	100000
-4.71925 	348.432 	4.7286e-12 	100000
-4.71825 	348.432 	4.73768e-12 	100000
-4.71725 	348.432 	4.74676e-12 	100000
-4.71625 	348.432 	4.75584e-12 	100000
-4.71525 	348.432 	4.76492e-12 	100000
-4.71425 	348.432 	4.774e-12 	100000
-4.71325 	348.432 	4.78308e-12 	100000
-4.71225 	348.432 	4.79216e-12 	100000
-4.71126 	348.432 	4.80124e-12 	100000
-4.71026 	348.432 	4.81031e-12 	100000
-4.70926 	348.432 	4.81939e-12 	100000
-4.70826 	348.432 	4.82847e-12 	100000
-4.70726 	348.432 	4.83755e-12 	100000
-4.70626 	348.432 	4.84663e-12 	100000
-4.70526 	348.432 	4.85571e-12 	100000
-4.70426 	348.432 	4.86479e-12 	100000
-4.70326 	348.432 	4.87387e-12 	100000
-4.70226 	348.432 	4.88295e-12 	100000
-4.70126 	348.432 	4.89203e-12 	100000
-4.70027 	348.432 	4.90111e-12 	100000
-4.69927 	348.432 	4.91019e-12 	100000
-4.69827 	348.432 	4.91927e-12 	100000
-4.69727 	348.432 	4.92835e-12 	100000
-4.69627 	348.432 	4.93743e-12 	100000
-4.69527 	348.432 	4.94651e-12 	100000
-4.69427 	348.432 	4.95559e-12 	100000
-4.69327 	348.432 	4.96467e-12 	100000
-4.69227 	348.432 	4.97375e-12 	100000
-4.69127 	348.432 	4.98283e-12 	100000
-4.69027 	348.432 	4.99191e-12 	100000
-4.68928 	348.432 	5.00099e-12 	100000
-4.68828 	348.432 	5.01007e-12 	100000
-4.68728 	348.432 	5.01915e-12 	100000
-4.68628 	348.432 	5.02823e-12 	100000
-4.68528 	348.432 	5.03731e-12 	100000
-4.68428 	348.432 	5.04639e-12 	100000
-4.68328 	348.432 	5.05547e-12 	100000
-4.68228 	348.432 	5.06455e-12 	100000
-4.68128 	348.432 	5.07363e-12 	100000
-4.68028 	348.432 	5.08271e-12 	100000
-4.67928 	348.432 	5.09179e-12 	100000
-4.67829 	348.432 	5.10087e-12 	100000
-4.67729 	348.432 	5.10995e-12 	100000
-4.67629 	348.432 	5.11903e-12 	100000
-4.67529 	348.432 	5.1281e-12 	100000
-4.67429 	348.432 	5.13718e-12 	100000
-4.67329 	348.432 	5.14626e-12 	100000
-4.67229 	348.432 	5.15534e-12 	100000
-4.67129 	348.432 	5.16442e-12 	100000
-4.67029 	348.432 	5.1735e-12 	100000
-4.66929 	348.432 	5.18258e-12 	100000
-4.66829 	348.432 	5.19166e-12 	100000
-4.6673 	348.432 	5.20074e-12 	100000
-4.6663 	348.432 	5.20982e-12 	100000
-4.6653 	348.432 	5.2189e-12 	100000
-4.6643 	348.432 	5.22798e-12 	100000
-4.6633 	348.432 	5.23706e-12 	100000
-4.6623 	348.432 	5.24614e-12 	100000
-4.6613 	348.432 	5.25522e-12 	100000
-4.6603 	348.432 	5.2643e-12 	100000
-4.6593 	348.432 	5.27338e-12 	100000
-4.6583 	348.432 	5.28246e-12 	100000
-4.6573 	348.432 	5.29154e-12 	100000
-4.65631 	348.432 	5.30062e-12 	100000
-4.65531 	348.432 	5.3097e-12 	100000
-4.65431 	348.432 	5.31878e-12 	100000
-4.65331 	348.432 	5.32786e-12 	100000
-4.65231 	348.432 	5.33694e-12 	100000
-4.65131 	348.432 	5.34602e-12 	100000
-4.65031 	348.432 	5.3551e-12 	100000
-4.64931 	348.432 	5.34931e-12 	100000
-4.64831 	348.432 	5.33682e-12 	100000
-4.64731 	348.432 	5.32433e-12 	100000
-4.64631 	348.432 	5.31184e-12 	100000
-4.64532 	348.432 	5.29935e-12 	100000
-4.64432 	348.432 	5.28686e-12 	100000
-4.64332 	348.432 	5.27437e-12 	100000
-4.64232 	348.432 	5.26188e-12 	100000
-4.64132 	348.432 	5.24939e-12 	100000
-4.64032 	348.432 	5.2369e-12 	100000
-4.63932 	348.432 	5.22441e-12 	100000
-4.63832 	348.432 	5.21192e-12 	100000
-4.63732 	348.432 	5.19943e-12 	100000
-4.63632 	348.432 	5.18694e-12 	100000
-4.63532 	348.432 	5.17445e-12 	100000
-4.63432 	348.432 	5.16196e-12 	100000
-4.63333 	348.432 	5.14947e-12 	100000
-4.63233 	348.432 	5.13698e-12 	100000
-4.63133 	348.432 	5.12449e-12 	100000
-4.63033 	348.432 	5.112e-12 	100000
-4.62933 	348.432 	5.09951e-12 	100000
-4.62833 	348.432 	5.08702e-12 	100000
-4.62733 	348.432 	5.07453e-12 	100000
-4.62633 	348.432 	5.06204e-12 	100000
-4.62533 	348.432 	5.04955e-12 	100000
-4.62433 	348.432 	5.03706e-12 	100000
-4.62333 	348.432 	5.02457e-12 	100000
-4.62234 	348.432 	5.01208e-12 	100000
-4.62134 	348.432 	4.99959e-12 	100000
-4.62034 	348.432 	4.9871e-12 	100000
-4.61934 	348.432 	4.97461e-12 	100000
-4.61834 	348.432 	4.96212e-12 	100000
-4.61734 	348.432 	4.94963e-12 	100000
-4.61634 	348.432 	4.93714e-12 	100000
-4.61534 	348.432 	4.92465e-12 	100000
-4.61434 	348.432 	4.91216e-12 	100000
-4.61334 	348.432 	4.89967e-12 	100000
-4.61234 	348.432 	4.88718e-12 	100000
-4.61135 	348.432 	4.87469e-12 	100000
-4.61035 	348.432 	4.8622e-12 	100000
-4.60935 	348.432 	4.84971e-12 	100000
-4.60835 	348.432 	4.83722e-12 	100000
-4.60735 	348.432 	4.82473e-12 	100000
-4.60635 	348.432 	4.81224e-12 	100000
-4.60535 	348.432 	4.79975e-12 	100000
-4.60435 	348.432 	4.78726e-12 	100000
-4.60335 	348.432 	4.77477e-12 	100000
-4.60235 	348.432 	4.76227e-12 	100000
-4.60135 	348.432 	4.74978e-12 	100000
-4.60036 	348.432 	4.73729e-12 	100000
-4.59936 	348.432 	4.7248e-12 	100000
-4.59836 	348.432 	4.71231e-12 	100000
-4.59736 	348.432 	4.69982e-12 	100000
-4.59636 	348.432 	4.68733e-12 	100000
-4.59536 	348.432 	4.67484e-12 	100000
-4.59436 	348.432 	4.66235e-12 	100000
-4.59336 	348.432 	4.64986e-12 	100000
-4.59236 	348.432 	4.63737e-12 	100000
-4.59136 	348.432 	4.62488e-12 	100000
-4.59036 	348.432 	4.61239e-12 	100000
-4.58937 	348.432 	4.5999e-12 	100000
-4.58837 	348.432 	4.58741e-12 	100000
-4.58737 	348.432 	4.57492e-12 	100000
-4.58637 	348.432 	4.56243e-12 	100000
-4.58537 	348.432 	4.54994e-12 	100000
-4.58437 	348.432 	4.53745e-12 	100000
-4.58337 	348.432 	4.52496e-12 	100000
-4.58237 	348.432 	4.51247e-12 	100000
-4.58137 	348.432 	4.49998e-12 	100000
-4.58037 	348.432 	4.48749e-12 	100000
-4.57937 	348.432 	4.475e-12 	100000
-4.57838 	348.432 	4.46251e-12 	100000
-4.57738 	348.432 	4.45002e-12 	100000
-4.57638 	348.432 	4.43753e-12 	100000
-4.57538 	348.432 	4.42504e-12 	100000
-4.57438 	348.432 	4.41255e-12 	100000
-4.57338 	348.432 	4.40006e-12 	100000
-4.57238 	348.432 	4.38757e-12 	100000
-4.57138 	348.432 	4.37508e-12 	100000
-4.57038 	348.432 	4.36259e-12 	100000
-4.56938 	348.432 	4.3501e-12 	100000
-4.56838 	348.432 	4.33761e-12 	100000
-4.56739 	348.432 	4.32512e-12 	100000
-4.56639 	348.432 	4.31263e-12 	100000
-4.56539 	348.432 	4.30014e-12 	100000
-4.56439 	348.432 	4.28765e-12 	100000
-4.56339 	348.432 	4.27516e-12 	100000
-4.56239 	348.432 	4.26267e-12 	100000
-4.56139 	348.432 	4.25018e-12 	100000
-4.56039 	348.432 	4.23769e-12 	100000
-4.55939 	348.432 	4.2252e-12 	100000
-4.55839 	348.432 	4.21271e-12 	100000
-4.55739 	348.432 	4.20022e-12 	100000
-4.5564 	348.432 	4.18773e-12 	100000
-4.5554 	348.432 	4.17524e-12 	100000
-4.5544 	348.432 	4.16275e-12 	100000
-4.5534 	348.432 	4.15026e-12 	100000
-4.5524 	348.432 	4.13777e-12 	100000
-4.5514 	348.432 	4.12528e-12 	100000
-4.5504 	348.432 	4.11279e-12 	100000
-4.5494 	348.432 	4.10928e-12 	100000
-4.5484 	348.432 	4.11179e-12 	100000
-4.5474 	348.432 	4.1143e-12 	100000
-4.5464 	348.432 	4.1168e-12 	100000
-4.54541 	348.432 	4.11931e-12 	100000
-4.54441 	348.432 	4.12182e-12 	100000
-4.54341 	348.432 	4.12432e-12 	100000
-4.54241 	348.432 	4.12683e-12 	100000
-4.54141 	348.432 	4.12934e-12 	100000
-4.54041 	348.432 	4.13184e-12 	100000
-4.53941 	348.432 	4.13435e-12 	100000
-4.53841 	348.432 	4.13686e-12 	100000
-4.53741 	348.432 	4.13936e-12 	100000
-4.53641 	348.432 	4.14187e-12 	100000
-4.53541 	348.432 	4.14438e-12 	100000
-4.53441 	348.432 	4.14688e-12 	100000
-4.53342 	348.432 	4.14939e-12 	100000
-4.53242 	348.432 	4.1519e-12 	100000
-4.53142 	348.432 	4.1544e-12 	100000
-4.53042 	348.432 	4.15691e-12 	100000
-4.52942 	348.432 	4.15942e-12 	100000
-4.52842 	348.432 	4.16193e-12 	100000
-4.52742 	348.432 	4.16443e-12 	100000
-4.52642 	348.432 	4.16694e-12 	100000
-4.52542 	348.432 	4.16945e-12 	100000
-4.52442 	348.432 	4.17195e-12 	100000
-4.52342 	348.432 	4.17446e-12 	100000
-4.52243 	348.432 	4.17697e-12 	100000
-4.52143 	348.432 	4.17947e-12 	100000
-4.52043 	348.432 	4.18198e-12 	100000
-4.51943 	348.432 	4.18449e-12 	100000
-4.51843 	348.432 	4.18699e-12 	100000
-4.51743 	348.432 	4.1895e-12 	100000
-4.51643 	348.432 	4.19201e-12 	100000
-4.51543 	348.432 	4.19451e-12 	100000
-4.51443 	348.432 	4.19702e-12 	100000
-4.51343 	348.432 	4.19953e-12 	100000
-4.51243 	348.432 	4.20203e-12 	100000
-4.51144 	348.432 	4.20454e-12 	100000
-4.51044 	348.432 	4.20705e-12 	100000
-4.50944 	348.432 	4.20956e-12 	100000
-4.50844 	348.432 	4.21206e-12 	100000
-4.50744 	348.432 	4.21457e-12 	100000
-4.50644 	348.432 	4.21708e-12 	100000
-4.50544 	348.432 	4.21958e-12 	100000
-4.50444 	348.432 	4.22209e-12 	100000
-4.50344 	348.432 	4.2246e-12 	100000
-4.50244 	348.432 	4.2271e-12 	100000
-4.50144 	348.432 	4.22961e-12 	100000
-4.50045 	348.432 	4.23212e-12 	100000
-4.49945 	348.432 	4.23462e-12 	100000
-4.49845 	348.432 	4.23713e-12 	100000
-4.49745 	348.432 	4.23964e-12 	100000
-4.49645 	348.432 	4.24214e-12 	100000
-4.49545 	348.432 	4.24465e-12 	100000
-4.49445 	348.432 	4.24716e-12 	100000
-4.49345 	348.432 	4.24966e-12 	100000
-4.49245 	348.432 	4.25217e-12 	100000
-4.49145 	348.432 	4.25468e-12 	100000
-4.49045 	348.432 	4.25719e-12 	100000
-4.48946 	348.432 	4.25969e-12 	100000
-4.48846 	348.432 	4.2622e-12 	100000
-4.48746 	348.432 	4.26471e-12 	100000
-4.48646 	348.432 	4.26721e-12 	100000
-4.48546 	348.432 	4.26972e-12 	100000
-4.48446 	348.432 	4.27223e-12 	100000
-4.48346 	348.432 	4.27473e-12 	100000
-4.48246 	348.432 	4.27724e-12 	100000
-4.48146 	348.432 	4.27975e-12 	100000
-4.48046 	348.432 	4.28225e-12 	100000
-4.47946 	348.432 	4.28476e-12 	100000
-4.47847 	348.432 	4.28727e-12 	100000
-4.47747 	348.432 	4.28977e-12 	100000
-4.47647 	348.432 	4.29228e-12 	100000
-4.47547 	348.432 	4.29479e-12 	100000
-4.47447 	348.432 	4.29729e-12 	100000
-4.47347 	348.432 	4.2998e-12 	100000
-4.47247 	348.432 	4.30231e-12 	100000
-4.47147 	348.432 	4.30482e-12 	100000
-4.47047 	348.432 	4.30732e-12 	100000
-4.46947 	348.432 	4.30983e-12 	100000
-4.46847 	348.432 	4.31234e-12 	100000
-4.46748 	348.432 	4.31484e-12 	100000
-4.46648 	348.432 	4.31735e-12 	100000
-4.46548 	348.432 	4.31986e-12 	100000
-4.46448 	348.432 	4.32236e-12 	100000
-4.46348 	348.432 	4.32487e-12 	100000
-4.46248 	348.432 	4.32738e-12 	100000
-4.46148 	348.432 	4.32988e-12 	100000
-4.46048 	348.432 	4.33239e-12 	100000
-4.45948 	348.432 	4.3349e-12 	100000
-4.45848 	348.432 	4.3374e-12 	100000
-4.45748 	348.432 	4.33991e-12 	100000
-4.45649 	348.432 	4.34242e-12 	100000
-4.45549 	348.432 	4.34492e-12 	100000
-4.45449 	348.432 	4.34743e-12 	100000
-4.45349 	348.432 	4.34994e-12 	100000
-4.45249 	348.432 	4.35245e-12 	100000
-4.45149 	348.432 	4.35495e-12 	100000
-4.45049 	348.432 	4.35746e-12 	100000
-4.44949 	348.432 	4.3558e-12 	100000
-4.44849 	348.432 	4.35013e-12 	100000
-4.44749 	348.432 	4.34447e-12 	100000
-4.44649 	348.432 	4.3388e-12 	100000
-4.4455 	348.432 	4.33313e-12 	100000
-4.4445 	348.432 	4.32746e-12 	100000
-4.4435 	348.432 	4.32179e-12 	100000
-4.4425 	348.432 	4.31612e-12 	100000
-4.4415 	348.432 	4.31045e-12 	100000
-4.4405 	348.432 	4.30478e-12 	100000
-4.4395 	348.432 	4.29911e-12 	100000
-4.4385 	348.432 	4.29344e-12 	100000
-4.4375 	348.432 	4.28777e-12 	100000
-4.4365 	348.432 	4.2821e-12 	100000
-4.4355 	348.432 	4.27643e-12 	100000
-4.4345 	348.432 	4.27076e-12 	100000
-4.43351 	348.432 	4.26509e-12 	100000
-4.43251 	348.432 	4.25942e-12 	100000
-4.43151 	348.432 	4.25376e-12 	100000
-4.43051 	348.432 	4.24809e-12 	100000
-4.42951 	348.432 	4.24242e-12 	100000
-4.42851 	348.432 	4.23675e-12 	100000
-4.42751 	348.432 	4.23108e-12 	100000
-4.42651 	348.432 	4.22541e-12 	100000
-4.42551 	348.432 	4.21974e-12 	100000
-4.42451 	348.432 	4.21407e-12 	100000
-4.42351 	348.432 	4.2084e-12 	100000
-4.42252 	348.432 	4.20273e-12 	100000
-4.42152 	348.432 	4.19706e-12 	100000
-4.42052 	348.432 	4.19139e-12 	100000
-4.41952 	348.432 	4.18572e-12 	100000
-4.41852 	348.432 	4.18005e-12 	100000
-4.41752 	348.432 	4.17438e-12 	100000
-4.41652 	348.432 	4.16871e-12 	100000
-4.41552 	348.432 	4.16304e-12 	100000
-4.41452 	348.432 	4.15738e-12 	100000
-4.41352 	348.432 	4.15171e-12 	100000
-4.41252 	348.432 	4.14604e-12 	100000
-4.41153 	348.432 	4.14037e-12 	100000
-4.41053 	348.432 	4.1347e-12 	100000
-4.40953 	348.432 	4.12903e-12 	100000
-4.40853 	348.432 	4.12336e-12 	100000
-4.40753 	348.432 	4.11769e-12 	100000
-4.40653 	348.432 	4.11202e-12 	100000
-4.40553 	348.432 	4.10635e-12 	100000
-4.40453 	348.432 	4.10068e-12 	100000
-4.40353 	348.432 	4.09501e-12 	100000
-4.40253 	348.432 	4.08934e-12 	100000
-4.40153 	348.432 	4.08367e-12 	100000
-4.40054 	348.432 	4.078e-12 	100000
-4.39954 	348.432 	4.07233e-12 	100000
-4.39854 	348.432 	4.06667e-12 	100000
-4.39754 	348.432 	4.061e-12 	100000
-4.39654 	348.432 	4.05533e-12 	100000
-4.39554 	348.432 	4.04966e-12 	100000
-4.39454 	348.432 	4.04399e-12 	100000
-4.39354 	348.432 	4.03832e-12 	100000
-4.39254 	348.432 	4.03265e-12 	100000
-4.39154 	348.432 	4.02698e-12 	100000
-4.39054 	348.432 	4.02131e-12 	100000
-4.38955 	348.432 	4.01564e-12 	100000
-4.38855 	348.432 	4.00997e-12 	100000
-4.38755 	348.432 	4.0043e-12 	100000
-4.38655 	348.432 	3.99863e-12 	100000
-4.38555 	348.432 	3.99296e-12 	100000
-4.38455 	348.432 	3.98729e-12 	100000
-4.38355 	348.432 	3.98162e-12 	100000
-4.38255 	348.432 	3.97595e-12 	100000
-4.38155 	348.432 	3.97029e-12 	100000
-4.38055 	348.432 	3.96462e-12 	100000
-4.37955 	348.432 	3.95895e-12 	100000
-4.37856 	348.432 	3.95328e-12 	100000
-4.37756 	348.432 	3.94761e-12 	100000
-4.37656 	348.432 	3.94194e-12 	100000
-4.37556 	348.432 	3.93627e-12 	100000
-4.37456 	348.432 	3.9306e-12 	100000
-4.37356 	348.432 	3.92493e-12 	100000
-4.37256 	348.432 	3.91926e-12 	100000
-4.37156 	348.432 	3.91359e-12 	100000
-4.37056 	348.432 	3.90792e-12 	100000
-4.36956 	348.432 	3.90225e-12 	100000
-4.36856 	348.432 	3.89658e-12 	100000
-4.36757 	348.432 	3.89091e-12 	100000
-4.36657 	348.432 	3.88524e-12 	100000
-4.36557 	348.432 	3.87958e-12 	100000
-4.36457 	348.432 	3.87391e-12 	100000
-4.36357 	348.432 	3.86824e-12 	100000
-4.36257 	348.432 	3.86257e-12 	100000
-4.36157 	348.432 	3.8569e-12 	100000
-4.36057 	348.432 	3.85123e-12 	100000
-4.35957 	348.432 	3.84556e-12 	100000
-4.35857 	348.432 	3.83989e-12 	100000
-4.35757 	348.432 	3.83422e-12 	100000
-4.35658 	348.432 	3.82855e-12 	100000
-4.35558 	348.432 	3.82288e-12 	100000
-4.35458 	348.432 	3.81721e-12 	100000
-4.35358 	348.432 	3.81154e-12 	100000
-4.35258 	348.432 	3.80587e-12 	100000
-4.35158 	348.432 	3.8002e-12 	100000
-4.35058 	348.432 	3.79453e-12 	100000
-4.34958 	348.432 	3.78831e-12 	100000
-4.34858 	348.432 	3.78131e-12 	100000
-4.34758 	348.432 	3.77432e-12 	100000
-4.34658 	348.432 	3.76732e-12 	100000
-4.34559 	348.432 	3.76033e-12 	100000
-4.34459 	348.432 	3.75333e-12 	100000
-4.34359 	348.432 	3.74634e-12 	100000
-4.34259 	348.432 	3.73934e-12 	100000
-4.34159 	348.432 	3.73234e-12 	100000
-4.34059 	348.432 	3.72535e-12 	100000
-4.33959 	348.432 	3.71835e-12 	100000
-4.33859 	348.432 	3.71136e-12 	100000
-4.33759 	348.432 	3.70436e-12 	100000
-4.33659 	348.432 	3.69737e-12 	100000
-4.33559 	348.432 	3.69037e-12 	100000
-4.33459 	348.432 	3.68338e-12 	100000
-4.3336 	348.432 	3.67638e-12 	100000
-4.3326 	348.432 	3.66938e-12 	100000
-4.3316 	348.432 	3.66239e-12 	100000
-4.3306 	348.432 	3.65539e-12 	100000
-4.3296 	348.432 	3.6484e-12 	100000
-4.3286 	348.432 	3.6414e-12 	100000
-4.3276 	348.432 	3.63441e-12 	100000
-4.3266 	348.432 	3.62741e-12 	100000
-4.3256 	348.432 	3.62042e-12 	100000
-4.3246 	348.432 	3.61342e-12 	100000
-4.3236 	348.432 	3.60642e-12 	100000
-4.32261 	348.432 	3.59943e-12 	100000
-4.32161 	348.432 	3.59243e-12 	100000
-4.32061 	348.432 	3.58544e-12 	100000
-4.31961 	348.432 	3.57844e-12 	100000
-4.31861 	348.432 	3.57145e-12 	100000
-4.31761 	348.432 	3.56445e-12 	100000
-4.31661 	348.432 	3.55745e-12 	100000
-4.31561 	348.432 	3.55046e-12 	100000
-4.31461 	348.432 	3.54346e-12 	100000
-4.31361 	348.432 	3.53647e-12 	100000
-4.31261 	348.432 	3.52947e-12 	100000
-4.31162 	348.432 	3.52248e-12 	100000
-4.31062 	348.432 	3.51548e-12 	100000
-4.30962 	348.432 	3.50849e-12 	100000
-4.30862 	348.432 	3.50149e-12 	100000
-4.30762 	348.432 	3.49449e-12 	100000
-4.30662 	348.432 	3.4875e-12 	100000
-4.30562 	348.432 	3.4805e-12 	100000
-4.30462 	348.432 	3.47351e-12 	100000
-4.30362 	348.432 	3.46651e-12 	100000
-4.30262 	348.432 	3.45952e-12 	100000
-4.30162 	348.432 	3.45252e-12 	100000
-4.30063 	348.432 	3.44553e-12 	100000
-4.29963 	348.432 	3.43853e-12 	100000
-4.29863 	348.432 	3.43153e-12 	100000
-4.29763 	348.432 	3.42454e-12 	100000
-4.29663 	348.432 	3.41754e-12 	100000
-4.29563 	348.432 	3.41055e-12 	100000
-4.29463 	348.432 	3.40355e-12 	100000
-4.29363 	348.432 	3.39656e-12 	100000
-4.29263 	348.432 	3.38956e-12 	100000
-4.29163 	348.432 	3.38256e-12 	100000
-4.29063 	348.432 	3.37557e-12 	100000
-4.28964 	348.432 	3.36857e-12 	100000
-4.28864 	348.432 	3.36158e-12 	100000
-4.28764 	348.432 	3.35458e-12 	100000
-4.28664 	348.432 	3.34759e-12 	100000
-4.28564 	348.432 	3.34059e-12 	100000
-4.28464 	348.432 	3.3336e-12 	100000
-4.28364 	348.432 	3.3266e-12 	100000
-4.28264 	348.432 	3.3196e-12 	100000
-4.28164 	348.432 	3.31261e-12 	100000
-4.28064 	348.432 	3.30561e-12 	100000
-4.27964 	348.432 	3.29862e-12 	100000
-4.27865 	348.432 	3.29162e-12 	100000
-4.27765 	348.432 	3.28463e-12 	100000
-4.27665 	348.432 	3.27763e-12 	100000
-4.27565 	348.432 	3.27064e-12 	100000
-4.27465 	348.432 	3.26364e-12 	100000
-4.27365 	348.432 	3.25664e-12 	100000
-4.27265 	348.432 	3.24965e-12 	100000
-4.27165 	348.432 	3.24265e-12 	100000
-4.27065 	348.432 	3.23566e-12 	100000
-4.26965 	348.432 	3.22866e-12 	100000
-4.26865 	348.432 	3.22167e-12 	100000
-4.26766 	348.432 	3.21467e-12 	100000
-4.26666 	348.432 	3.20767e-12 	100000
-4.26566 	348.432 	3.20068e-12 	100000
-4.26466 	348.432 	3.19368e-12 	100000
-4.26366 	348.432 	3.18669e-12 	100000
-4.26266 	348.432 	3.17969e-12 	100000
-4.26166 	348.432 	3.1727e-12 	100000
-4.26066 	348.432 	3.1657e-12 	100000
-4.25966 	348.432 	3.15871e-12 	100000
-4.25866 	348.432 	3.15171e-12 	100000
-4.25766 	348.432 	3.14471e-12 	100000
-4.25667 	348.432 	3.13772e-12 	100000
-4.25567 	348.432 	3.13072e-12 	100000
-4.25467 	348.432 	3.12373e-12 	100000
-4.25367 	348.432 	3.11673e-12 	100000
-4.25267 	348.432 	3.10974e-12 	100000
-4.25167 	348.432 	3.10274e-12 	100000
-4.25067 	348.432 	3.09575e-12 	100000
-4.24967 	348.432 	3.08904e-12 	100000
-4.24867 	348.432 	3.08292e-12 	100000
-4.24767 	348.432 	3.07679e-12 	100000
-4.24667 	348.432 	3.07067e-12 	100000
-4.24568 	348.432 	3.06455e-12 	100000
-4.24468 	348.432 	3.05843e-12 	100000
-4.24368 	348.432 	3.05231e-12 	100000
-4.24268 	348.432 	3.04619e-12 	100000
-4.24168 	348.432 	3.04007e-12 	100000
-4.24068 	348.432 	3.03395e-12 	100000
-4.23968 	348.432 	3.02783e-12 	100000
-4.23868 	348.432 	3.0217e-12 	100000
-4.23768 	348.432 	3.01558e-12 	100000
-4.23668 	348.432 	3.00946e-12 	100000
-4.23568 	348.432 	3.00334e-12 	100000
-4.23468 	348.432 	2.99722e-12 	100000
-4.23369 	348.432 	2.9911e-12 	100000
-4.23269 	348.432 	2.98498e-12 	100000
-4.23169 	348.432 	2.97886e-12 	100000
-4.23069 	348.432 	2.97273e-12 	100000
-4.22969 	348.432 	2.96661e-12 	100000
-4.22869 	348.432 	2.96049e-12 	100000
-4.22769 	348.432 	2.95437e-12 	100000
-4.22669 	348.432 	2.94825e-12 	100000
-4.22569 	348.432 	2.94213e-12 	100000
-4.22469 	348.432 	2.93601e-12 	100000
-4.22369 	348.432 	2.92989e-12 	100000