/*--------------------------------*- C++ -*----------------------------------*\
| =========                 |                                                 |
| \\      /  F ield         | OpenFOAM: The Open Source CFD Toolbox           |
|  \\    /   O peration     | Version:  v2012                                 |
|   \\  /    A nd           | Website:  www.openfoam.com                      |
|    \\/     M anipulation  |                                                 |
\*---------------------------------------------------------------------------*/
FoamFile
{
    version     2.0;
    format      ascii;
    class       volScalarField;
    location    "0.1";
    object      T;
}
// * * * * * * * * * * * * * * * * * * * * * * * * * * * * * * * * * * * * * //

dimensions      [0 0 0 1 0 0 0];


internalField   nonuniform List<scalar> 
1000
(
1.65746e-250
-7.98549e-250
3.21426e-249
-1.30679e-248
5.30912e-248
-2.15683e-247
8.76133e-247
-3.55863e-246
1.44529e-245
-5.86931e-245
2.38329e-244
-9.67671e-244
3.92859e-243
-1.59479e-242
6.47336e-242
-2.62732e-241
1.06624e-240
-4.32669e-240
1.75555e-239
-7.12243e-239
2.88935e-238
-1.17201e-237
4.75353e-237
-1.92779e-236
7.81735e-236
-3.16968e-235
1.28507e-234
-5.20949e-234
2.11164e-233
-8.55851e-233
3.46843e-232
-1.40547e-231
5.69464e-231
-2.3071e-230
9.34586e-230
-3.78553e-229
1.53316e-228
-6.20875e-228
2.51404e-227
-1.01788e-226
4.1207e-226
-1.66801e-225
6.75119e-225
-2.73221e-224
1.1056e-223
-4.4734e-223
1.80979e-222
-7.32096e-222
2.96115e-221
-1.19758e-220
4.84282e-220
-1.95814e-219
7.91659e-219
-3.20024e-218
1.29353e-217
-5.22784e-217
2.1126e-216
-8.5361e-216
3.44867e-215
-1.39313e-214
5.62705e-214
-2.27257e-213
9.17702e-213
-3.70539e-212
1.49594e-211
-6.03864e-211
2.43732e-210
-9.83631e-210
3.96915e-209
-1.60144e-208
6.46051e-208
-2.60597e-207
1.05103e-206
-4.23847e-206
1.70902e-205
-6.89013e-205
2.77749e-204
-1.11949e-203
4.51162e-203
-1.81797e-202
7.32462e-202
-2.9507e-201
1.18852e-200
-4.78665e-200
1.92751e-199
-7.76075e-199
3.12429e-198
-1.25759e-197
5.06137e-197
-2.03674e-196
8.1949e-196
-3.29679e-195
1.3261e-194
-5.33337e-194
2.14469e-193
-8.62313e-193
3.4666e-192
-1.39341e-191
5.60004e-191
-2.2503e-190
9.04118e-190
-3.632e-189
1.45882e-188
-5.8586e-188
2.35245e-187
-9.44453e-187
3.79118e-186
-1.52161e-185
6.1061e-185
-2.44995e-184
9.82844e-184
-3.94224e-183
1.58101e-182
-6.3395e-182
2.5416e-181
-1.0188e-180
4.08323e-180
-1.63624e-179
6.55569e-179
-2.62615e-178
1.05184e-177
-4.21217e-177
1.68652e-176
-6.75154e-176
2.70235e-175
-1.08145e-174
4.3271e-174
-1.73106e-173
6.92395e-173
-2.76898e-172
1.10716e-171
-4.42611e-171
1.76912e-170
-7.06996e-170
2.82487e-169
-1.1285e-168
4.50738e-168
-1.79998e-167
7.18675e-167
-2.86891e-166
1.14504e-165
-4.56922e-165
1.82298e-164
-7.27177e-164
2.90011e-163
-1.1564e-162
4.61014e-162
-1.83754e-161
7.32276e-161
-2.91761e-160
1.16223e-159
-4.62885e-159
1.84317e-158
-7.33787e-158
2.92069e-157
-1.16229e-156
4.62435e-156
-1.83949e-155
7.31567e-155
-2.90884e-154
1.15636e-153
-4.59593e-153
1.82625e-152
-7.25527e-152
2.88173e-151
-1.14434e-150
4.54323e-150
-1.80333e-149
7.15633e-149
-2.83927e-148
1.12623e-147
-4.46626e-147
1.77077e-146
-7.01911e-146
2.78163e-145
-1.10208e-144
4.36543e-144
-1.72877e-143
6.8445e-143
-2.70921e-142
1.0721e-141
-4.24155e-141
1.67767e-140
-6.63406e-140
2.62267e-139
-1.03657e-138
4.09584e-138
-1.61799e-137
6.38995e-137
-2.52294e-136
9.95866e-136
-3.9299e-135
1.55041e-134
-6.11499e-134
2.41117e-133
-9.50476e-133
3.74573e-132
-1.47574e-131
5.81253e-131
-2.28875e-130
9.00966e-130
-3.54564e-129
1.39495e-128
-5.48648e-128
2.15727e-127
-8.47983e-127
3.33228e-126
-1.30908e-125
5.14116e-125
-2.01848e-124
7.92234e-124
-3.1085e-123
1.2193e-122
-4.78121e-122
1.87425e-121
-7.34476e-121
2.87733e-120
-1.12683e-119
4.41153e-119
-1.72654e-118
6.75491e-118
-2.6419e-117
1.03292e-116
-4.03713e-116
1.57735e-115
-6.16072e-115
2.40539e-114
-9.38827e-114
3.66296e-113
-1.42864e-112
5.57002e-112
-2.17087e-111
8.45765e-111
-3.29386e-110
1.28233e-109
-4.99031e-109
1.94129e-108
-7.54898e-108
2.93439e-107
-1.14019e-106
4.42857e-106
-1.7194e-105
6.67295e-105
-2.5887e-104
1.00385e-103
-3.89111e-103
1.50764e-102
-5.83903e-102
2.26047e-101
-8.74721e-101
3.38339e-100
-1.30811e-99
5.05529e-99
-1.95278e-98
7.53988e-98
-2.9099e-97
1.12252e-96
-4.32819e-96
1.66808e-95
-6.42569e-95
2.47409e-94
-9.52144e-94
3.6625e-93
-1.40811e-92
5.41106e-92
-2.0783e-91
7.97837e-91
-3.06123e-90
1.17396e-89
-4.49969e-89
1.72378e-88
-6.60006e-88
2.52568e-87
-9.6599e-87
3.69255e-86
-1.41071e-85
5.38644e-85
-2.05551e-84
7.83943e-84
-2.98811e-83
1.13829e-82
-4.33359e-82
1.64885e-81
-6.26974e-81
2.38259e-80
-9.0485e-80
3.43423e-79
-1.30258e-78
4.93741e-78
-1.87029e-77
7.07995e-77
-2.67831e-76
1.0125e-75
-3.82501e-75
1.444e-74
-5.44749e-74
2.0536e-73
-7.7361e-73
2.91213e-72
-1.09542e-71
4.11738e-71
-1.54644e-70
5.80381e-70
-2.17648e-69
8.15555e-69
-3.05355e-68
1.14237e-67
-4.27022e-67
1.5949e-66
-5.95186e-66
2.21922e-65
-8.26746e-65
3.07726e-64
-1.14438e-63
4.2519e-63
-1.57834e-62
5.8535e-62
-2.16881e-61
8.02814e-61
-2.96885e-60
1.09682e-59
-4.04809e-59
1.49254e-58
-5.49742e-58
2.02273e-57
-7.43465e-57
2.72971e-56
-1.00115e-55
3.66779e-55
-1.34221e-54
4.90619e-54
-1.79128e-53
6.5324e-53
-2.37938e-52
8.65619e-52
-3.14525e-51
1.1414e-50
-4.13683e-50
1.49739e-49
-5.41291e-49
1.95409e-48
-7.04475e-48
2.53621e-47
-9.11785e-47
3.27323e-46
-1.17335e-45
4.19982e-45
-1.50099e-44
5.35618e-44
-1.90832e-43
6.78817e-43
-2.41073e-42
8.54716e-42
-3.02525e-41
1.06894e-40
-3.77035e-40
1.32749e-39
-4.6654e-39
1.63658e-38
-5.73005e-38
2.00234e-37
-6.98323e-37
2.43051e-36
-8.44191e-36
2.92596e-35
-1.01195e-34
3.49218e-34
-1.20242e-33
4.13062e-33
-1.41564e-32
4.84e-32
-1.6507e-31
5.61562e-31
-1.90549e-30
6.44864e-30
-2.17648e-29
7.32551e-29
-2.45859e-28
8.22754e-28
-2.74509e-27
9.13086e-27
-3.02762e-26
1.00066e-25
-3.29636e-25
1.08219e-24
-3.54037e-24
1.15407e-23
-3.74805e-23
1.21262e-22
-3.90789e-22
1.25431e-21
-4.0092e-21
1.27599e-20
-4.04311e-20
1.27527e-19
-4.00348e-19
1.25072e-18
-3.88772e-18
1.20218e-17
-3.69747e-17
1.13088e-16
-3.43889e-16
1.03948e-15
-3.1226e-15
9.31993e-15
-2.76309e-14
8.1348e-14
-2.37764e-13
6.897e-13
-1.98495e-12
5.66583e-12
-1.6034e-11
4.49693e-11
-1.2494e-10
3.43713e-10
-9.35822e-10
2.52035e-09
-6.71046e-09
1.76521e-08
-4.58461e-08
1.17476e-07
-2.96752e-07
7.38325e-07
-1.80756e-06
4.34975e-06
-1.02765e-05
2.38046e-05
-5.39842e-05
0.000119656
-0.000258727
0.00054456
-0.00111291
0.00220203
-0.00420387
0.00771201
-0.013528
0.0225525
-0.0354567
0.0520431
-0.0703417
0.0858227
-0.091595
0.0807405
-0.0512276
0.0113525
0.019899
-0.0237282
0.00104733
0.0192623
-0.00773312
-0.0187275
0.0082679
0.0264828
0.00170733
-0.0419198
-0.0504664
0.0121137
0.144082
0.316417
0.493835
0.649999
0.772384
0.859884
0.917893
0.953974
0.975214
0.987129
0.993535
0.99685
0.998508
0.999311
0.999689
0.999863
0.999941
0.999975
0.99999
0.999996
0.999998
0.999999
1
1
1
1
1
1
1
1
1
1
1
1
1
1
1
1
1
1
1
1
1
1
1
1
1
1
1
1
1
1
1
1
1
1
1
1
1
1
1
1
1
1
1
0.999999
1
0.999996
1.00001
0.999976
1.00005
0.99988
1.00026
0.999455
1.00111
0.997798
1.0042
0.992288
1.01353
0.977448
1.03546
0.947957
1.07034
0.914177
1.09159
0.91926
1.05123
0.988648
0.980101
1.02373
0.998953
0.980738
1.00773
1.01873
0.991732
0.973517
0.998293
1.04192
1.05047
0.987886
0.855918
0.683583
0.506165
0.350001
0.227616
0.140116
0.0821068
0.0460264
0.0247864
0.0128705
0.00646464
0.0031497
0.00149223
0.000688939
0.000310555
0.000136915
5.91258e-05
2.50447e-05
1.04184e-05
4.26108e-06
1.71519e-06
6.80111e-07
2.65883e-07
1.0256e-07
3.90621e-08
1.46995e-08
5.46871e-09
2.01254e-09
7.33002e-10
2.64349e-10
9.44398e-11
3.34364e-11
1.17366e-11
4.08582e-12
1.41117e-12
4.83709e-13
1.64597e-13
5.56183e-14
1.86675e-14
6.22497e-15
2.06288e-15
6.79508e-16
2.22532e-16
7.24689e-17
2.34725e-17
7.56295e-18
2.42451e-18
7.73443e-19
2.45568e-19
7.76103e-20
2.44193e-20
7.65015e-21
2.38664e-21
7.41547e-22
2.29496e-22
7.0753e-23
2.17318e-23
6.65079e-24
2.02824e-24
6.16418e-25
1.86716e-25
5.63736e-26
1.69666e-26
5.09065e-27
1.52281e-27
4.54197e-28
1.35083e-28
4.00631e-29
1.18497e-29
3.49552e-30
1.02846e-30
3.01832e-31
8.83619e-32
2.58055e-32
7.5185e-33
2.18547e-33
6.3383e-34
1.83417e-34
5.29619e-35
1.52604e-35
4.38799e-36
1.25916e-36
3.60604e-37
1.0307e-37
2.94037e-38
8.37256e-39
2.37966e-39
6.75132e-40
1.91203e-40
5.40564e-41
1.52567e-41
4.29882e-42
1.20928e-42
3.39629e-43
9.52351e-44
2.66634e-44
7.45373e-45
2.08057e-45
5.79898e-46
1.61397e-46
4.48561e-47
1.24492e-47
3.45039e-48
9.55011e-49
2.63981e-49
7.28739e-50
2.00916e-50
5.53234e-51
1.52147e-51
4.17917e-52
1.14655e-52
3.14184e-53
8.59942e-54
2.35102e-54
6.42028e-55
1.75133e-55
4.77209e-56
1.29891e-56
3.53176e-57
9.59287e-58
2.6029e-58
7.05547e-59
1.91056e-59
5.16851e-60
1.39685e-60
3.77152e-61
1.01736e-61
2.74174e-62
7.3821e-63
1.98582e-63
5.33718e-64
1.43318e-64
3.84515e-65
1.03075e-65
2.76074e-66
7.38813e-67
1.97554e-67
5.27818e-68
1.40907e-68
3.75871e-69
1.00186e-69
2.66831e-70
7.10125e-71
1.88846e-71
5.01831e-72
1.33256e-72
3.53593e-73
9.3758e-74
2.48431e-74
6.57809e-75
1.74058e-75
4.60248e-76
1.21618e-76
3.21153e-77
8.47505e-78
2.23506e-78
5.89058e-79
1.55149e-79
4.08384e-80
1.07428e-80
2.82424e-81
7.42028e-82
1.9484e-82
5.11304e-83
1.34099e-83
3.51494e-84
9.20794e-85
2.41079e-85
6.30832e-86
1.64978e-86
4.31221e-87
1.12651e-87
2.94131e-88
7.67562e-89
2.00197e-89
5.21885e-90
1.35978e-90
3.54111e-91
9.21706e-92
2.39788e-92
6.23516e-93
1.62052e-93
4.20971e-94
1.09305e-94
2.83676e-95
7.3587e-96
1.90799e-96
4.94483e-97
1.28094e-97
3.31672e-98
8.58409e-99
2.22069e-99
5.74235e-100
1.48424e-100
3.83468e-101
9.90306e-102
2.55639e-102
6.59632e-103
1.70136e-103
4.38645e-104
1.13045e-104
2.91217e-105
7.49906e-106
1.9303e-106
4.96676e-107
1.27747e-107
3.28445e-108
8.44128e-109
2.16865e-109
5.56939e-110
1.42976e-110
3.6691e-111
9.41233e-112
2.41367e-112
6.1873e-113
1.58552e-113
4.0615e-114
1.04004e-114
2.66234e-115
6.81283e-116
1.74278e-116
4.45669e-117
1.13929e-117
2.91148e-118
7.43788e-119
1.89951e-119
4.84948e-120
1.23768e-120
3.15778e-121
8.05413e-122
2.05361e-122
5.2346e-123
1.33387e-123
3.39791e-124
8.65323e-125
2.20299e-125
5.60684e-126
1.42657e-126
3.62862e-127
9.22705e-128
2.34562e-128
5.96113e-129
1.51452e-129
3.84679e-130
9.76787e-131
2.47959e-131
6.29275e-132
1.59654e-132
4.04952e-133
1.02685e-133
2.60313e-134
6.59735e-135
1.67158e-135
4.23419e-136
1.07226e-136
2.71469e-137
6.8711e-138
1.73869e-138
4.39854e-139
1.11246e-139
2.8129e-140
7.11075e-141
1.79709e-141
4.54065e-142
1.147e-142
2.89668e-143
7.31367e-144
1.84615e-144
4.65905e-145
1.17551e-145
2.96519e-146
7.47791e-147
1.88542e-147
4.75266e-148
1.19775e-148
3.01787e-149
7.60217e-150
1.9146e-150
4.82085e-151
1.2136e-151
3.05443e-152
7.68587e-153
1.93358e-153
4.8634e-154
1.223e-154
3.07483e-155
7.72904e-156
1.94241e-156
4.88051e-157
1.22603e-157
3.07929e-158
7.73236e-159
1.94127e-159
4.87274e-160
1.22286e-160
3.06826e-161
7.69704e-162
1.93051e-162
4.84101e-163
1.21371e-163
3.04239e-164
7.62484e-165
1.91058e-165
4.78651e-166
1.19892e-166
3.00251e-167
7.51793e-168
1.88206e-168
4.71073e-169
1.17887e-169
2.94962e-170
7.37886e-171
1.84559e-171
4.61536e-172
1.15398e-172
2.88482e-173
7.21046e-174
1.80191e-174
4.50224e-175
1.12474e-175
2.80931e-176
7.01579e-177
1.75179e-177
4.37335e-178
1.09163e-178
2.72437e-179
6.79807e-180
1.69604e-180
4.23073e-181
1.05518e-181
2.63129e-182
6.56057e-183
1.63549e-183
4.07647e-184
1.01591e-184
2.53139e-185
6.3066e-186
1.57096e-186
3.91264e-187
9.74338e-188
2.42596e-188
6.03939e-189
1.50327e-189
3.74127e-190
9.30973e-191
2.31628e-191
5.76212e-192
1.43321e-192
3.56433e-193
8.86303e-194
2.20356e-194
5.47781e-195
1.36153e-195
3.38367e-196
8.40791e-197
2.08895e-197
5.1893e-198
1.28893e-198
3.20105e-199
7.94869e-200
1.97352e-200
4.89923e-201
1.21607e-201
3.01807e-202
7.48936e-203
1.85824e-203
4.61004e-204
1.14354e-204
2.83622e-205
7.03352e-206
1.74402e-206
4.32389e-207
1.07187e-207
2.65679e-208
6.58442e-209
1.63164e-209
4.04274e-210
1.00155e-210
2.48096e-211
6.14488e-212
1.52179e-212
3.76826e-213
9.32991e-214
2.30973e-214
5.71734e-215
1.41506e-215
3.50191e-216
8.66532e-217
2.14395e-217
5.30386e-218
1.31196e-218
3.24489e-219
8.0247e-220
1.98431e-220
4.90614e-221
1.21289e-221
2.99816e-222
7.41038e-223
1.83138e-223
4.5255e-224
1.11817e-224
2.7625e-225
6.82415e-226
1.68558e-226
4.16296e-227
1.02804e-227
2.53845e-228
6.26733e-229
1.54722e-229
3.81921e-230
9.42651e-231
2.32639e-231
5.74076e-232
1.41648e-232
3.49469e-233
8.62109e-234
2.12653e-234
5.24489e-235
1.29347e-235
3.18959e-236
7.86446e-237
1.93892e-237
4.77978e-238
1.17818e-238
2.90386e-239
7.15642e-240
1.76349e-240
4.3452e-241
1.07054e-241
2.63728e-242
6.49632e-243
1.60006e-243
3.94063e-244
9.70406e-245
2.38946e-245
5.88311e-246
1.44835e-246
3.56532e-247
8.77574e-248
2.15996e-248
5.31252e-249
1.31978e-249
2.7392e-250
)
;

boundaryField
{
    sides
    {
        type            inletOutlet;
        inletValue      uniform 0;
        value           nonuniform List<scalar> 2(2.7392e-250 0);
    }
    empty
    {
        type            empty;
    }
}


// ************************************************************************* //
