/*--------------------------------*- C++ -*----------------------------------*\
| =========                 |                                                 |
| \\      /  F ield         | OpenFOAM: The Open Source CFD Toolbox           |
|  \\    /   O peration     | Version:  v2012                                 |
|   \\  /    A nd           | Website:  www.openfoam.com                      |
|    \\/     M anipulation  |                                                 |
\*---------------------------------------------------------------------------*/
FoamFile
{
    version     2.0;
    format      ascii;
    class       volScalarField;
    location    "5";
    object      T;
}
// * * * * * * * * * * * * * * * * * * * * * * * * * * * * * * * * * * * * * //

dimensions      [0 0 0 1 0 0 0];


internalField   nonuniform List<scalar> 
1000
(
2.97653e-14
5.62461e-15
-4.7862e-14
4.79589e-16
-4.4802e-14
2.54976e-14
3.35845e-14
3.89318e-14
3.60507e-14
-3.185e-14
-5.10653e-14
-7.32106e-14
-3.61905e-14
3.9363e-14
8.96961e-14
1.17244e-13
5.15761e-14
-5.17351e-14
-1.54246e-13
-1.86861e-13
-9.85596e-14
7.08557e-14
2.48978e-13
3.17493e-13
2.00064e-13
-7.47133e-14
-3.92031e-13
-5.55219e-13
-4.24568e-13
1.22364e-14
5.8255e-13
9.77162e-13
9.05673e-13
2.58349e-13
-7.62613e-13
-1.67373e-12
-1.90081e-12
-1.07998e-12
6.69023e-13
2.65213e-12
3.81492e-12
3.1972e-12
5.15929e-13
-3.4754e-12
-7.02024e-12
-7.98944e-12
-4.86826e-12
2.19351e-12
1.08936e-11
1.71734e-11
1.67157e-11
7.03722e-12
-1.0515e-11
-3.0025e-11
-4.2173e-11
-3.75828e-11
-1.13791e-11
3.258e-11
8.00633e-11
1.08968e-10
9.65733e-11
2.99081e-11
-8.39809e-11
-2.1263e-10
-3.01709e-10
-2.89818e-10
-1.32622e-10
1.69709e-10
5.51924e-10
8.81091e-10
9.80918e-10
6.84891e-10
-8.96242e-11
-1.26564e-09
-2.55686e-09
-3.47459e-09
-3.41492e-09
-1.83259e-09
1.51847e-09
6.3287e-09
1.15397e-08
1.53091e-08
1.5225e-08
8.82762e-09
-5.56329e-09
-2.78031e-08
-5.48488e-08
-7.99438e-08
-9.24232e-08
-7.85321e-08
-2.3619e-08
8.40392e-08
2.47703e-07
4.55092e-07
6.70195e-07
8.24715e-07
8.10095e-07
4.71295e-07
-3.96489e-07
-2.04705e-06
-4.77744e-06
-8.91674e-06
-1.48093e-05
-2.27932e-05
-3.31741e-05
-4.61979e-05
-6.20218e-05
-8.06884e-05
-0.000102103
-0.000126019
-0.00015203
-0.00017957
-0.000207928
-0.00023627
-0.00026367
-0.000289148
-0.000311713
-0.000330412
-0.000344375
-0.000352858
-0.000355281
-0.000351255
-0.000340608
-0.000323389
-0.000299869
-0.000270528
-0.000236032
-0.000197209
-0.000155006
-0.000110453
-6.46221e-05
-1.85838e-05
2.66299e-05
7.00607e-05
0.000110853
0.000148276
0.00018174
0.000210807
0.000235187
0.000254742
0.000269469
0.000279492
0.000285043
0.000286441
0.000284077
0.00027839
0.000269849
0.000258935
0.000246125
0.000231881
0.000216636
0.000200787
0.000184691
0.000168661
0.000152965
0.00013783
0.000123443
0.000109961
9.75099e-05
8.61981e-05
7.61203e-05
6.73651e-05
6.00205e-05
5.41784e-05
4.99368e-05
4.74005e-05
4.66786e-05
4.78797e-05
5.11049e-05
5.64384e-05
6.39368e-05
7.3617e-05
8.54447e-05
9.93229e-05
0.000115083
0.000132479
0.000151182
0.000170787
0.00019081
0.000210708
0.000229887
0.000247723
0.000263586
0.00027686
0.000286969
0.000293403
0.000295738
0.000293657
0.000286962
0.000275589
0.00025961
0.000239232
0.00021479
0.000186738
0.000155629
0.000122098
8.68366e-05
5.05707e-05
1.40349e-05
-2.20515e-05
-5.7006e-05
-9.02036e-05
-0.000121092
-0.000149206
-0.000174173
-0.000195721
-0.000213678
-0.000227969
-0.000238609
-0.000245698
-0.000249407
-0.000249967
-0.000247658
-0.000242795
-0.000235715
-0.000226767
-0.0002163
-0.000204655
-0.000192154
-0.000179099
-0.000165762
-0.000152386
-0.000139181
-0.000126323
-0.000113957
-0.000102196
-9.11239e-05
-8.0798e-05
-7.12527e-05
-6.25014e-05
-5.45404e-05
-4.73518e-05
-4.09064e-05
-3.5166e-05
-3.00867e-05
-2.56202e-05
-2.17163e-05
-1.83238e-05
-1.53925e-05
-1.28734e-05
-1.07201e-05
-8.88905e-06
-7.3399e-06
-6.03571e-06
-4.94307e-06
-4.03198e-06
-3.27579e-06
-2.65103e-06
-2.13714e-06
-1.7163e-06
-1.37314e-06
-1.09451e-06
-8.69212e-07
-6.87781e-07
-5.42266e-07
-4.26019e-07
-3.33516e-07
-2.60191e-07
-2.02289e-07
-1.56737e-07
-1.21033e-07
-9.31512e-08
-7.14555e-08
-5.46337e-08
-4.16368e-08
-3.163e-08
-2.39518e-08
-1.80805e-08
-1.36058e-08
-1.02069e-08
-7.63367e-09
-5.69182e-09
-4.23117e-09
-3.13597e-09
-2.31738e-09
-1.70744e-09
-1.25439e-09
-9.18884e-10
-6.71195e-10
-4.88875e-10
-3.55082e-10
-2.57179e-10
-1.8576e-10
-1.33799e-10
-9.61151e-11
-6.88529e-11
-4.91954e-11
-3.5052e-11
-2.49127e-11
-1.7656e-11
-1.2484e-11
-8.80073e-12
-6.19138e-12
-4.34161e-12
-3.03943e-12
-2.12001e-12
-1.47718e-12
-1.02478e-12
-7.10831e-13
-4.90449e-13
-3.38712e-13
-2.32471e-13
-1.59814e-13
-1.09226e-13
-7.46381e-14
-5.09876e-14
-3.44628e-14
-2.37866e-14
-1.56796e-14
-1.12458e-14
-6.96899e-15
-5.55029e-15
-2.96032e-15
-3.00932e-15
-1.13306e-15
-1.8987e-15
-3.1783e-16
-1.42268e-15
2.13761e-17
-1.21927e-15
1.27581e-16
-1.1265e-15
1.10844e-16
-1.073e-15
2.26725e-17
-1.02715e-15
-1.09957e-16
-9.73968e-16
-2.69613e-16
-9.05022e-16
-4.42405e-16
-8.14505e-16
-6.16172e-16
-6.9826e-16
-7.80506e-16
-5.54021e-16
-9.27414e-16
-3.82019e-16
-1.05193e-15
-1.85428e-16
-1.15235e-15
2.95939e-17
-1.23002e-15
2.54398e-16
-1.28853e-15
4.78805e-16
-1.33276e-15
6.92412e-16
-1.36772e-15
8.8601e-16
-1.39756e-15
1.05285e-15
-1.42487e-15
1.18956e-15
-1.45042e-15
1.29644e-15
-1.47322e-15
1.37714e-15
-1.49096e-15
1.43777e-15
-1.50066e-15
1.48554e-15
-1.49926e-15
1.52729e-15
-1.48428e-15
1.56807e-15
-1.45416e-15
1.61024e-15
-1.40851e-15
1.65303e-15
-1.34799e-15
1.69282e-15
-1.27414e-15
1.72399e-15
-1.18902e-15
1.74008e-15
-1.09473e-15
1.73516e-15
-9.93077e-16
1.70491e-15
-8.85232e-16
1.64736e-15
-7.71518e-16
1.56306e-15
-6.51391e-16
1.4547e-15
-5.23607e-16
1.3263e-15
-3.86588e-16
1.18225e-15
-2.38959e-16
1.02638e-15
-8.01874e-17
8.61358e-16
8.88267e-17
6.88516e-16
2.65359e-16
5.07993e-16
4.44813e-16
3.19244e-16
6.211e-16
1.21649e-16
7.8741e-16
-8.488e-17
9.37221e-16
-2.99428e-16
1.06533e-15
-5.19793e-16
1.16864e-15
-7.4241e-16
1.24653e-15
-9.62473e-16
1.30067e-15
-1.17426e-15
1.3345e-15
-1.37162e-15
1.35234e-15
-1.54864e-15
1.35849e-15
-1.70036e-15
1.35654e-15
-1.82345e-15
1.34898e-15
-1.91669e-15
1.33707e-15
-1.98111e-15
1.32109e-15
-2.01978e-15
1.30073e-15
-2.03708e-15
1.27546e-15
-2.0378e-15
1.24496e-15
-2.02608e-15
1.20928e-15
-2.00447e-15
1.16895e-15
-1.97342e-15
1.12489e-15
-1.9311e-15
1.07818e-15
-1.87382e-15
1.02978e-15
-1.79674e-15
9.80175e-16
-1.69496e-15
9.29164e-16
-1.56452e-15
8.75723e-16
-1.40337e-15
8.18095e-16
-1.21206e-15
7.54076e-16
-9.93922e-16
6.81435e-16
-7.54847e-16
5.98375e-16
-5.02607e-16
5.03924e-16
-2.4583e-16
3.98159e-16
7.15019e-18
2.82245e-16
2.49331e-16
1.58309e-16
4.75725e-16
2.92467e-17
6.83527e-16
-1.01487e-16
8.71725e-16
-2.30036e-16
1.04027e-15
-3.52268e-16
1.18904e-15
-4.63916e-16
1.31691e-15
-5.60808e-16
1.42122e-15
-6.39205e-16
1.4978e-15
-6.96253e-16
1.54157e-15
-7.30461e-16
1.54758e-15
-7.42086e-16
1.51237e-15
-7.333e-16
1.43499e-15
-7.08032e-16
1.31777e-15
-6.71443e-16
1.16637e-15
-6.29091e-16
9.89121e-16
-5.85927e-16
7.95837e-16
-5.45365e-16
5.96369e-16
-5.08671e-16
3.99256e-16
-4.74881e-16
2.10821e-16
-4.41299e-16
3.48756e-17
-4.0442e-16
-1.27024e-16
-3.6098e-16
-2.74992e-16
-3.08759e-16
-4.10196e-16
-2.46867e-16
-5.3442e-16
-1.75453e-16
-6.49875e-16
-9.50006e-17
-7.59137e-16
-5.5749e-18
-8.6503e-16
9.36663e-17
-9.70322e-16
2.04456e-16
-1.07719e-15
3.28899e-16
-1.18659e-15
4.68618e-16
-1.29776e-15
6.2387e-16
-1.40799e-15
7.92917e-16
-1.51292e-15
9.71879e-16
-1.60719e-15
1.15512e-15
-1.68551e-15
1.33606e-15
-1.74365e-15
1.50817e-15
-1.77928e-15
1.66578e-15
-1.79215e-15
1.80451e-15
-1.78376e-15
1.92126e-15
-1.75643e-15
2.01377e-15
-1.71241e-15
2.08028e-15
-1.65314e-15
2.11929e-15
-1.57913e-15
2.12973e-15
-1.49031e-15
2.1113e-15
-1.38669e-15
2.06469e-15
-1.26889e-15
1.99153e-15
-1.1383e-15
1.89384e-15
-9.9685e-16
1.77348e-15
-8.46636e-16
1.63155e-15
-6.8969e-16
1.46851e-15
-5.28075e-16
1.28466e-15
-3.64276e-16
1.08099e-15
-2.01628e-16
8.59989e-16
-4.44245e-17
6.25922e-16
1.02487e-16
3.84447e-16
2.34589e-16
1.41735e-16
3.48751e-16
-9.66061e-17
4.44064e-16
-3.2639e-16
5.22144e-16
-5.45251e-16
5.86807e-16
-7.52514e-16
6.43251e-16
-9.48694e-16
6.96983e-16
-1.13479e-15
7.52758e-16
-1.31156e-15
8.13703e-16
-1.47891e-15
8.80765e-16
-1.63547e-15
9.52545e-16
-1.7785e-15
1.02558e-15
-1.90411e-15
1.09506e-15
-2.00787e-15
1.15579e-15
-2.0856e-15
1.20318e-15
-2.13402e-15
1.23398e-15
-2.15116e-15
1.24645e-15
-2.13627e-15
1.2401e-15
-2.08947e-15
1.21521e-15
-2.0114e-15
1.17247e-15
-1.90325e-15
1.11308e-15
-1.76703e-15
1.03903e-15
-1.60616e-15
9.53579e-16
-1.42569e-15
8.61214e-16
-1.2321e-15
7.67268e-16
-1.0326e-15
6.77145e-16
-8.34287e-16
5.95586e-16
-6.43403e-16
5.26251e-16
-4.65072e-16
4.71695e-16
-3.03378e-16
4.33613e-16
-1.61617e-16
4.13102e-16
-4.24886e-17
4.10748e-16
5.19627e-17
4.26418e-16
1.20672e-16
4.58843e-16
1.64035e-16
5.05167e-16
1.84271e-16
5.60829e-16
1.85286e-16
6.20116e-16
1.71762e-16
6.77547e-16
1.47501e-16
7.29803e-16
1.1351e-16
7.77495e-16
6.67351e-17
8.25808e-16
2.47949e-19
8.83409e-16
-9.47833e-17
9.59732e-16
-2.25927e-16
1.06161e-15
-3.96394e-16
1.19073e-15
-6.03409e-16
1.34299e-15
-8.38836e-16
1.51017e-15
-1.0917e-15
1.68291e-15
-1.35131e-15
1.85342e-15
-1.60933e-15
2.01666e-15
-1.85988e-15
2.16925e-15
-2.09774e-15
2.30743e-15
-2.31629e-15
2.42515e-15
-2.50649e-15
2.51428e-15
-2.65822e-15
2.56678e-15
-2.76332e-15
2.57813e-15
-2.81893e-15
2.5499e-15
-2.829e-15
2.48992e-15
-2.80303e-15
2.4096e-15
-2.75235e-15
2.31961e-15
-2.6857e-15
2.22598e-15
-2.60626e-15
2.12858e-15
-2.51165e-15
2.02264e-15
-2.39671e-15
1.90259e-15
-2.25763e-15
1.76602e-15
-2.09525e-15
1.6159e-15
-1.91573e-15
1.45974e-15
-1.72842e-15
1.30629e-15
-1.54195e-15
1.16172e-15
-1.36096e-15
1.02723e-15
-1.18509e-15
8.99331e-16
-1.01045e-15
7.72287e-16
-8.32449e-16
6.40671e-16
-6.47694e-16
5.0043e-16
-4.53832e-16
3.47541e-16
-2.46976e-16
1.74535e-16
-1.73176e-17
-3.44844e-17
2.56594e-16
-3.10234e-16
6.15268e-16
-7.06966e-16
1.12901e-15
-1.31609e-15
1.91563e-15
-2.28968e-15
3.17195e-15
-3.88277e-15
5.23016e-15
-6.52854e-15
8.65732e-15
-1.09691e-14
1.4426e-14
-1.84775e-14
2.42017e-14
-3.1229e-14
4.08218e-14
-5.29175e-14
6.90872e-14
-8.97725e-14
1.17069e-13
-1.52234e-13
1.98251e-13
-2.57695e-13
3.3504e-13
-4.34984e-13
5.64477e-13
-7.31628e-13
9.47469e-13
-1.22558e-12
1.58366e-12
-2.04404e-12
2.63521e-12
-3.39346e-12
4.36461e-12
-5.60713e-12
7.19448e-12
-9.22024e-12
1.18016e-11
-1.50875e-11
1.92641e-11
-2.45666e-11
3.12893e-11
-3.98022e-11
5.05673e-11
-6.41635e-11
8.13121e-11
-1.02914e-10
1.30089e-10
-1.6423e-10
2.07066e-10
-2.60741e-10
3.27907e-10
-4.11844e-10
5.16598e-10
-6.47158e-10
8.09661e-10
-1.01165e-09
1.26237e-09
-1.57318e-09
1.95792e-09
-2.43356e-09
3.02074e-09
-3.74464e-09
4.63584e-09
-5.7315e-09
7.07664e-09
-8.72577e-09
1.07448e-08
-1.32131e-08
1.62265e-08
-1.99001e-08
2.43723e-08
-2.98089e-08
3.64083e-08
-4.44079e-08
5.40907e-08
-6.57939e-08
7.99187e-08
-9.69413e-08
1.17426e-07
-1.42042e-07
1.71577e-07
-2.06963e-07
2.49296e-07
-2.99864e-07
3.6018e-07
-4.32014e-07
5.17439e-07
-6.1887e-07
7.39126e-07
-8.81483e-07
1.04975e-06
-1.24832e-06
1.48232e-06
-1.75762e-06
2.08101e-06
-2.46031e-06
2.90449e-06
-3.42382e-06
4.03007e-06
-4.73666e-06
5.55888e-06
-6.51414e-06
7.62218e-06
-8.90536e-06
1.0389e-05
-1.21015e-05
1.40751e-05
-1.63458e-05
1.89541e-05
-2.19451e-05
2.53694e-05
-2.9283e-05
3.37486e-05
-3.88353e-05
4.46196e-05
-5.11862e-05
5.86279e-05
-6.70469e-05
7.65552e-05
-8.7275e-05
9.93394e-05
-0.000112893
0.000128094
-0.000145111
0.000164127
-0.000185338
0.000208957
-0.000235207
0.00026433
-0.000296578
0.000332224
-0.000371545
0.000414853
-0.000462438
0.000514659
-0.000571804
0.000634297
-0.000702382
0.000776599
-0.000857065
0.000944538
-0.00103884
0.00114116
-0.00125069
0.00136954
-0.00149554
0.00163265
-0.00177603
0.00193335
-0.00209445
0.00227428
-0.00245243
0.00265781
-0.00285066
0.00308614
-0.00328855
0.00356137
-0.00376365
0.00408587
-0.00427095
0.0046628
-0.00480189
0.00529707
-0.00534304
0.00599672
-0.00587427
0.00677487
-0.0063664
0.00765245
-0.00677816
0.00866166
-0.00705243
0.00985037
-0.0071118
0.0112872
-0.00685352
0.0130671
-0.00614416
0.0153174
-0.00481441
0.0182035
-0.00265467
0.021933
0.00058785
0.0267582
0.00520953
0.0329763
0.0115473
0.0409243
0.0199715
0.0509707
0.0308738
0.0635012
0.0446506
0.0789003
0.0616813
0.0975284
0.0823038
0.119695
0.106788
0.145634
0.135308
0.175475
0.167922
0.209224
0.204548
0.246747
0.24496
0.287762
0.288781
0.331845
0.335491
0.378436
0.384451
0.426869
0.434923
0.476395
0.486109
0.526223
0.537188
0.575555
0.587353
0.623626
0.635851
0.669738
0.682015
0.713291
0.725288
0.7538
0.765241
0.790912
0.801582
0.824407
0.834153
0.854193
0.862922
0.880297
0.887971
0.902846
0.909472
0.922049
0.927672
0.938172
0.942864
0.951523
0.955375
0.962426
0.965539
0.97121
0.973688
0.97819
0.980135
0.983662
0.985169
0.987893
0.989049
0.991118
0.992
0.993538
0.994209
0.99532
0.995835
0.996598
0.996999
0.997473
0.997793
0.998018
0.99828
)
;

boundaryField
{
    sides
    {
        type            inletOutlet;
        inletValue      uniform 0;
        value           nonuniform List<scalar> 2(0.99828 0);
    }
    empty
    {
        type            empty;
    }
}


// ************************************************************************* //
