/*--------------------------------*- C++ -*----------------------------------*\
| =========                 |                                                 |
| \\      /  F ield         | OpenFOAM: The Open Source CFD Toolbox           |
|  \\    /   O peration     | Version:  v2012                                 |
|   \\  /    A nd           | Website:  www.openfoam.com                      |
|    \\/     M anipulation  |                                                 |
\*---------------------------------------------------------------------------*/
FoamFile
{
    version     2.0;
    format      ascii;
    class       volScalarField;
    location    "2";
    object      T;
}
// * * * * * * * * * * * * * * * * * * * * * * * * * * * * * * * * * * * * * //

dimensions      [0 0 0 1 0 0 0];


internalField   nonuniform List<scalar> 
1000
(
0
0
0
0
0
0
0
0
0
0
0
0
0
0
0
0
0
0
0
0
0
0
0
0
0
0
0
0
0
0
0
0
0
0
0
0
0
0
0
0
0
0
0
0
0
0
0
0
0
0
0
0
0
0
0
0
0
0
0
0
0
0
0
0
0
0
0
0
0
0
0
0
0
0
0
0
0
0
0
0
0
0
0
0
0
0
0
0
0
0
0
0
0
0
0
0
0
0
0
0
0
0
0
0
0
0
0
0
0
0
0
0
0
0
0
0
0
0
0
0
0
0
0
0
0
0
0
0
0
0
0
0
0
0
0
0
0
0
0
0
0
0
0
0
0
0
0
0
0
0
0
0
0
0
0
0
0
0
0
0
0
0
0
0
0
0
0
0
0
0
0
0
0
0
0
0
0
0
0
0
0
0
0
0
0
0
0
0
0
0
0
0
0
0
0
0
0
0
0
0
0
0
0
0
0
0
0
0
0
0
0
0
0
0
0
0
0
0
0
0
0
0
0
0
0
0
0
0
0
0
0
0
0
0
0
0
0
0
0
0
0
0
0
0
0
0
0
0
0
0
0
0
0
0
0
0
0
0
0
0
0
0
0
0
0
0
0
0
0
0
0
0
0
0
0
0
0
0
0
0
0
0
0
0
0
0
0
0
0
0
0
0
0
0
0
0
0
0
0
0
0
0
0
0
0
0
0
0
0
0
0
0
0
0
0
0
0
0
0
0
0
0
0
0
0
0
0
0
0
0
0
0
0
0
0
0
0
0
0
0
0
0
0
0
0
0
0
0
0
0
0
0
0
0
0
0
0
0
0
0
0
0
0
0
0
0
0
0
0
0
0
0
0
0
0
0
0
0
0
0
0
0
0
0
0
0
0
0
0
0
0
0
0
0
0
0
0
0
0
0
0
0
0
0
0
-7.11842e-98
8.02637e-85
-2.11551e-78
2.69542e-75
1.9952e-73
6.14818e-72
7.40525e-71
-1.4893e-69
-9.82957e-68
-2.81717e-66
-5.7764e-65
-9.51485e-64
-1.32599e-62
-1.61077e-61
-1.73953e-60
-1.69367e-59
-1.50242e-58
-1.22422e-57
-9.22209e-57
-6.45561e-56
-4.21674e-55
-2.57849e-54
-1.47975e-53
-7.98388e-53
-4.05381e-52
-1.93712e-51
-8.70123e-51
-3.66296e-50
-1.43652e-49
-5.18798e-49
-1.68513e-48
-4.65286e-48
-9.00603e-48
3.42712e-48
1.60132e-46
1.13012e-45
5.96317e-45
2.7355e-44
1.14709e-43
4.50117e-43
1.67459e-42
5.95595e-42
2.03675e-41
6.72524e-41
2.15126e-40
6.6843e-40
2.02194e-39
5.96576e-39
1.71979e-38
4.85109e-38
1.34066e-37
3.63427e-37
9.67316e-37
2.53018e-36
6.50868e-36
1.64765e-35
4.10669e-35
1.00823e-34
2.43898e-34
5.815e-34
1.36668e-33
3.1668e-33
7.23524e-33
1.63003e-32
3.62138e-32
7.93427e-32
1.7144e-31
3.65349e-31
7.67922e-31
1.59208e-30
3.25597e-30
6.56901e-30
1.30756e-29
2.56806e-29
4.97717e-29
9.52012e-29
1.79738e-28
3.34992e-28
6.16428e-28
1.12007e-27
2.00998e-27
3.56273e-27
6.23858e-27
1.07937e-26
1.84545e-26
3.11856e-26
5.20955e-26
8.60426e-26
1.40531e-25
2.27017e-25
3.62791e-25
5.73669e-25
8.97783e-25
1.39091e-24
2.13385e-24
3.2427e-24
4.88299e-24
7.28921e-24
1.07919e-23
1.58556e-23
2.31318e-23
3.35349e-23
4.83511e-23
6.93974e-23
9.92551e-23
1.41616e-22
2.01799e-22
2.87515e-22
4.10017e-22
5.85794e-22
8.39076e-22
1.20551e-21
1.73745e-21
2.51167e-21
3.64017e-21
5.28555e-21
7.68227e-21
1.11661e-20
1.62139e-20
2.34976e-20
3.39559e-20
4.8889e-20
7.0082e-20
9.99652e-20
1.41819e-19
2.00037e-19
2.80451e-19
3.90748e-19
5.40979e-19
7.44187e-19
1.01718e-18
1.38145e-18
1.86428e-18
2.50006e-18
3.3318e-18
4.41285e-18
5.80887e-18
7.6e-18
9.88318e-18
1.27747e-17
1.64132e-17
2.09627e-17
2.66169e-17
3.3605e-17
4.22003e-17
5.27332e-17
6.56122e-17
8.13545e-17
1.00632e-16
1.2434e-16
1.53688e-16
1.90328e-16
2.36526e-16
2.95394e-16
3.71182e-16
4.69693e-16
5.98867e-16
7.69627e-16
9.97053e-16
1.3023e-15
1.71617e-15
2.28551e-15
3.08461e-15
4.2381e-15
5.96292e-15
8.62892e-15
1.28309e-14
1.94703e-14
2.98485e-14
4.57912e-14
6.9836e-14
1.05492e-13
1.57556e-13
2.3253e-13
3.39172e-13
4.89301e-13
6.99698e-13
9.97157e-13
1.43007e-12
2.09309e-12
3.17771e-12
5.06664e-12
8.49165e-12
1.47858e-11
2.62901e-11
4.7006e-11
8.35853e-11
1.46714e-10
2.52935e-10
4.27047e-10
7.05425e-10
1.14072e-09
1.80818e-09
2.81264e-09
4.29304e-09
6.41726e-09
9.35591e-09
1.32204e-08
1.79512e-08
2.32033e-08
2.91511e-08
4.01414e-08
7.12243e-08
1.61674e-07
4.01825e-07
9.81101e-07
2.26939e-06
4.94848e-06
1.02154e-05
2.00846e-05
3.78212e-05
6.85393e-05
0.000120002
0.000203652
0.000335901
0.00053968
0.000846237
0.00129714
0.00194641
0.00286267
0.00413114
0.00585529
0.00815804
0.0111821
0.0150892
0.0200588
0.0262845
0.0339698
0.0433224
0.054547
0.0678377
0.0833687
0.101286
0.121699
0.14467
0.170213
0.198282
0.228775
0.261529
0.296321
0.332879
0.370882
0.409974
0.44977
0.489872
0.529877
0.569393
0.608044
0.645488
0.681418
0.715573
0.747741
0.77776
0.805522
0.830967
0.854083
0.8749
0.893483
0.909931
0.924366
0.936928
0.947768
0.957046
0.964921
0.971552
0.97709
0.981678
0.98545
0.988525
0.991013
0.993011
0.994602
0.99586
0.996847
0.997615
0.998208
0.998664
0.99901
0.999272
0.999468
0.999614
0.999722
0.999801
0.999858
0.9999
0.99993
0.999951
0.999966
0.999977
0.999984
0.999989
0.999993
0.999995
0.999997
0.999998
0.999999
0.999999
0.999999
1
1
1
1
1
1
1
0.999999
0.999998
0.999995
0.99999
0.999981
0.999963
0.999933
0.999882
0.999799
0.999667
0.999464
0.999158
0.998708
0.998059
0.997144
0.995876
0.994152
0.991848
0.988823
0.984914
0.979942
0.973713
0.966023
0.956664
0.945433
0.932134
0.916595
0.898669
0.878247
0.855267
0.829716
0.801639
0.77114
0.738383
0.703589
0.667031
0.629031
0.589944
0.550155
0.510062
0.470068
0.430565
0.391927
0.354497
0.318581
0.28444
0.252284
0.222276
0.194524
0.169087
0.145978
0.125166
0.106586
0.090139
0.075704
0.063141
0.052298
0.0430168
0.0351371
0.0285016
0.0229587
0.0183654
0.0145891
0.0115089
0.00901617
0.00701442
0.00541935
0.00415806
0.0031683
0.00239749
0.00180171
0.00134466
0.000996657
0.000733643
0.000536332
0.000389398
0.000280781
0.000201074
0.000143008
0.000101014
7.08628e-05
4.93711e-05
3.4162e-05
2.34761e-05
1.60222e-05
1.08599e-05
7.31031e-06
4.88703e-06
3.24451e-06
2.13915e-06
1.4006e-06
9.1067e-07
5.87989e-07
3.76989e-07
2.40009e-07
1.51723e-07
9.52323e-08
5.93486e-08
3.67206e-08
2.2556e-08
1.37545e-08
8.32587e-09
5.00255e-09
2.9833e-09
1.76568e-09
1.03705e-09
6.04394e-10
3.49481e-10
2.00476e-10
1.14072e-10
6.43743e-11
3.60247e-11
1.99882e-11
1.09943e-11
5.99415e-12
3.23915e-12
1.73512e-12
9.21817e-13
4.86331e-13
2.55528e-13
1.34506e-13
7.17317e-14
3.94821e-14
2.29251e-14
1.41772e-14
9.25867e-15
6.29472e-15
4.40138e-15
3.13706e-15
2.26495e-15
1.64927e-15
1.20744e-15
8.86794e-16
6.52319e-16
4.80034e-16
3.53093e-16
2.59445e-16
1.90349e-16
1.39404e-16
1.0189e-16
7.43152e-17
5.40867e-17
3.92805e-17
2.84683e-17
2.05915e-17
1.48666e-17
1.07152e-17
7.71146e-18
5.54253e-18
3.97936e-18
2.85468e-18
2.04667e-18
1.46689e-18
1.05129e-18
7.53594e-19
5.40445e-19
3.87857e-19
2.7861e-19
2.00362e-19
1.44279e-19
1.04045e-19
7.51487e-20
5.43664e-20
3.93971e-20
2.8597e-20
2.07913e-20
1.51396e-20
1.10402e-20
8.06142e-21
5.89329e-21
4.31265e-21
3.15864e-21
2.31499e-21
1.69753e-21
1.24517e-21
9.13518e-22
6.70211e-22
4.91644e-22
3.60558e-22
2.64322e-22
1.93676e-22
1.41827e-22
1.03787e-22
7.58928e-23
5.54492e-23
4.04766e-23
2.95191e-23
2.15068e-23
1.56532e-23
1.13808e-23
8.26559e-24
5.99647e-24
4.3454e-24
3.14537e-24
2.27412e-24
1.6423e-24
1.18463e-24
8.53502e-25
6.14204e-25
4.41476e-25
3.16945e-25
2.27271e-25
1.62774e-25
1.16441e-25
8.31967e-26
5.93723e-26
4.23194e-26
3.01281e-26
2.14229e-26
1.52146e-26
1.07924e-26
7.64623e-27
5.41065e-27
3.82404e-27
2.6994e-27
1.90319e-27
1.34018e-27
9.42575e-28
6.62117e-28
4.64537e-28
3.25515e-28
2.27818e-28
1.59246e-28
1.11177e-28
7.75213e-29
5.39873e-29
3.75513e-29
2.60867e-29
1.80999e-29
1.25428e-29
8.68104e-30
6.00082e-30
4.14296e-30
2.85674e-30
1.9674e-30
1.35324e-30
9.29643e-31
6.37852e-31
4.37104e-31
2.99165e-31
2.04503e-31
1.39621e-31
9.52063e-32
6.48401e-32
4.41048e-32
2.99636e-32
2.03314e-32
1.37786e-32
9.32636e-33
6.30503e-33
4.25726e-33
2.87107e-33
1.93388e-33
1.30102e-33
8.74207e-34
5.86702e-34
3.93275e-34
2.633e-34
1.76069e-34
1.17596e-34
7.84485e-35
5.22705e-35
3.47865e-35
2.31232e-35
1.53522e-35
1.01808e-35
6.74336e-36
4.4613e-36
2.94806e-36
1.94583e-36
1.28282e-36
8.44731e-37
5.55608e-37
3.6502e-37
2.39531e-37
1.57003e-37
1.02791e-37
6.72212e-38
4.39097e-38
2.86498e-38
1.86719e-38
1.21553e-38
7.90409e-39
5.13393e-39
3.3309e-39
2.15867e-39
1.39743e-39
9.03624e-40
5.83668e-40
3.76587e-40
)
;

boundaryField
{
    sides
    {
        type            inletOutlet;
        inletValue      uniform 0;
        value           nonuniform List<scalar> 2(3.76587e-40 0);
    }
    empty
    {
        type            empty;
    }
}


// ************************************************************************* //
