/*--------------------------------*- C++ -*----------------------------------*\
| =========                 |                                                 |
| \\      /  F ield         | OpenFOAM: The Open Source CFD Toolbox           |
|  \\    /   O peration     | Version:  v2012                                 |
|   \\  /    A nd           | Website:  www.openfoam.com                      |
|    \\/     M anipulation  |                                                 |
\*---------------------------------------------------------------------------*/
FoamFile
{
    version     2.0;
    format      ascii;
    class       volScalarField;
    location    "4";
    object      T;
}
// * * * * * * * * * * * * * * * * * * * * * * * * * * * * * * * * * * * * * //

dimensions      [0 0 0 1 0 0 0];


internalField   nonuniform List<scalar> 
1000
(
1.35811e-305
-4.10135e-305
4.46299e-304
-4.25041e-303
4.05045e-302
-3.83463e-301
3.60797e-300
-3.37371e-299
3.13512e-298
-2.89534e-297
2.65729e-296
-2.42363e-295
2.19674e-294
-1.97867e-293
1.77109e-292
-1.57536e-291
1.39247e-290
-1.22307e-289
1.06751e-288
-9.25858e-288
7.97921e-287
-6.83305e-286
5.81436e-285
-4.91606e-284
4.13002e-283
-3.44749e-282
2.85932e-281
-2.35626e-280
1.92921e-279
-1.56936e-278
1.26838e-277
-1.01847e-276
8.12483e-276
-6.43931e-275
5.0701e-274
-3.96585e-273
3.08171e-272
-2.37888e-271
1.8242e-270
-1.38958e-269
1.05146e-268
-7.90307e-268
5.90038e-267
-4.37559e-266
3.22296e-265
-2.35791e-264
1.71333e-263
-1.23647e-262
8.86238e-262
-6.30848e-261
4.45962e-260
-3.13081e-259
2.18267e-258
-1.51106e-257
1.03879e-256
-7.09097e-256
4.80627e-255
-3.23459e-254
2.16135e-253
-1.43388e-252
9.44417e-252
-6.17542e-251
4.0087e-250
-2.58321e-249
1.65241e-248
-1.04921e-247
6.61259e-247
-4.13649e-246
2.56817e-245
-1.58244e-244
9.67661e-244
-5.87207e-243
3.53599e-242
-2.11281e-241
1.25261e-240
-7.36815e-240
4.29993e-239
-2.48944e-238
1.42972e-237
-8.14494e-237
4.60238e-236
-2.57934e-235
1.43362e-234
-7.90193e-234
4.31889e-233
-2.34056e-232
1.2576e-231
-6.6989e-231
3.53728e-230
-1.85141e-229
9.60419e-229
-4.93749e-228
2.51533e-227
-1.26965e-226
6.34925e-226
-3.14533e-225
1.54334e-224
-7.4999e-224
3.60904e-223
-1.71953e-222
8.11052e-222
-3.78653e-221
1.74952e-220
-7.99844e-220
3.61762e-219
-1.61841e-218
7.15999e-218
-3.13184e-217
1.35409e-216
-5.78556e-216
2.44217e-215
-1.01815e-214
4.19094e-214
-1.70265e-213
6.82471e-213
-2.69779e-212
1.05122e-211
-4.03566e-211
1.52552e-210
-5.6744e-210
2.07536e-209
-7.45696e-209
2.6296e-208
-9.09e-208
3.07584e-207
-1.01704e-206
3.279e-206
-1.02795e-205
3.12198e-205
-9.13932e-205
2.55983e-204
-6.781e-204
1.66513e-203
-3.63928e-203
6.35121e-203
-4.85457e-203
-2.60259e-202
1.8285e-201
-7.81691e-201
2.73181e-200
-8.31055e-200
2.2199e-199
-5.05497e-199
8.74222e-199
-5.08312e-199
-4.41195e-198
2.71393e-197
-1.05394e-196
3.26363e-196
-8.3237e-196
1.64609e-195
-1.73527e-195
-4.30249e-195
3.53627e-194
-1.4277e-193
4.31213e-193
-1.01061e-192
1.59189e-192
1.08206e-193
-1.29219e-191
6.1643e-191
-1.96364e-190
4.63016e-190
-6.89764e-190
-2.93723e-190
6.6638e-189
-2.89212e-188
8.37468e-188
-1.67628e-187
1.36527e-187
6.41877e-187
-3.94714e-186
1.3025e-185
-2.89893e-185
3.22845e-185
7.24843e-185
-5.60275e-184
1.9252e-183
-4.27223e-183
4.37328e-183
1.2509e-182
-8.5787e-182
2.74916e-181
-5.41858e-181
2.88561e-181
2.71809e-180
-1.34291e-179
3.61084e-179
-5.23343e-179
-4.44354e-179
5.55567e-178
-1.93448e-177
3.84031e-177
-1.65194e-177
-2.06053e-176
9.322e-176
-2.2172e-175
2.12648e-175
7.25944e-175
-4.29098e-174
1.14283e-173
-1.38308e-173
-2.66886e-173
1.96281e-172
-5.52162e-172
7.08933e-172
1.15918e-171
-9.11661e-171
2.54616e-170
-3.0608e-170
-6.20837e-170
4.30199e-169
-1.1173e-168
1.06956e-168
3.7288e-168
-2.02324e-167
4.55745e-167
-2.29889e-167
-2.23716e-166
9.17108e-166
-1.6367e-165
-5.21254e-166
1.25102e-164
-3.82764e-164
4.49247e-164
1.01906e-163
-6.2553e-163
1.37055e-162
-3.73778e-163
-7.65166e-162
2.67849e-161
-3.56232e-161
-5.9613e-161
4.13912e-160
-9.0454e-160
1.56821e-160
5.25669e-159
-1.69851e-158
1.8162e-158
5.23815e-158
-2.7022e-157
4.72358e-157
2.98157e-157
-3.81415e-156
9.21681e-156
-2.92478e-156
-4.86145e-155
1.56259e-154
-1.42153e-154
-5.60229e-154
2.43017e-153
-3.29986e-153
-5.73815e-153
3.56925e-152
-6.18721e-152
-4.93886e-152
5.04872e-151
-1.04113e-150
-2.88892e-151
6.9848e-150
-1.63933e-149
6.27119e-151
9.576e-149
-2.46737e-148
5.56862e-149
1.31525e-147
-3.5923e-147
1.13629e-147
1.82403e-146
-5.09072e-146
1.64425e-146
2.56347e-145
-7.03535e-145
1.75235e-145
3.64632e-144
-9.46325e-144
8.58191e-145
5.21933e-143
-1.23142e-142
-2.04098e-143
7.45009e-142
-1.53272e-141
-8.46876e-142
1.04867e-140
-1.78888e-140
-2.05122e-140
1.4373e-139
-1.88467e-139
-4.06539e-139
1.89033e-138
-1.63427e-138
-7.11969e-138
2.34155e-137
-7.78487e-138
-1.13059e-136
2.65576e-136
9.84068e-137
-1.6381e-135
2.61292e-135
3.90652e-135
-2.15145e-134
1.91883e-134
8.02407e-134
-2.50632e-133
2.6824e-134
1.29136e-132
-2.45452e-132
-2.51653e-132
1.74499e-131
-1.70625e-131
-6.27334e-131
1.97134e-130
-4.00978e-132
-1.0271e-129
1.72734e-129
2.51849e-129
-1.30984e-128
8.05685e-129
5.50024e-128
-1.28693e-127
-8.20405e-128
7.8945e-127
-7.91238e-127
-2.84001e-126
8.31602e-126
2.08985e-126
-4.53669e-125
5.55742e-125
1.49386e-124
-4.93949e-124
-5.45404e-125
2.55853e-123
-3.26438e-123
-8.33266e-123
2.75611e-122
4.61458e-123
-1.42994e-121
1.64157e-121
4.94641e-121
-1.44192e-120
-6.1204e-121
7.84283e-120
-6.68139e-120
-3.01744e-119
6.89282e-119
6.47085e-119
-4.10548e-118
1.63535e-118
1.79532e-117
-2.8213e-117
-5.47632e-117
1.95773e-116
4.87438e-117
-9.87101e-116
8.15322e-116
3.83736e-115
-7.82948e-115
-1.01755e-114
4.71767e-114
1.1704e-115
-2.22779e-113
2.09038e-113
8.43432e-113
-1.76412e-112
-2.30079e-112
1.02817e-111
1.47061e-112
-4.88301e-111
3.55308e-111
1.94424e-110
-3.26342e-110
-6.2123e-110
1.99632e-109
1.23846e-109
-1.00564e-108
2.14089e-109
4.3928e-108
-4.24147e-108
-1.67033e-107
3.10876e-107
5.30462e-107
-1.75958e-106
-1.1754e-106
8.62815e-106
-4.04947e-107
-3.80375e-105
2.56387e-105
1.52336e-104
-2.04582e-104
-5.49805e-104
1.21415e-103
1.725e-103
-6.25306e-103
-4.16434e-103
2.93827e-102
3.05236e-103
-1.28767e-101
4.93819e-102
5.31792e-101
-4.57441e-101
-2.07758e-100
2.86421e-100
7.66603e-100
-1.53609e-99
-2.64962e-99
7.54315e-99
8.40514e-99
-3.49153e-98
-2.3262e-98
1.54743e-97
4.74649e-98
-6.63064e-97
5.30091e-100
2.76536e-96
-7.6479e-97
-1.12816e-95
6.00764e-96
4.52034e-95
-3.50725e-95
-1.78511e-94
1.80422e-94
6.97008e-94
-8.63257e-94
-2.69912e-93
3.93678e-93
1.03975e-92
-1.73402e-92
-3.99629e-92
7.4363e-92
1.53704e-91
-3.12091e-91
-5.93208e-91
1.28617e-90
2.30288e-90
-5.21628e-90
-9.00915e-90
2.0846e-89
3.55565e-89
-8.21328e-89
-1.41602e-88
3.18981e-88
5.68638e-88
-1.22005e-87
-2.29908e-87
4.58794e-87
9.33874e-87
-1.69157e-86
-3.80107e-86
6.08952e-86
1.54586e-85
-2.12676e-85
-6.26329e-85
7.13261e-85
2.52065e-84
-2.25653e-84
-1.00463e-83
6.49892e-84
3.95318e-83
-1.55568e-83
-1.53081e-82
2.02914e-83
5.81221e-82
8.20181e-83
-2.1543e-81
-9.39313e-82
7.75129e-81
5.93938e-81
-2.68631e-80
-3.10567e-80
8.86107e-80
1.46351e-79
-2.72598e-79
-6.41338e-79
7.50582e-79
2.64833e-78
-1.6563e-78
-1.03538e-77
1.56401e-78
3.82896e-77
1.1633e-77
-1.33098e-76
-1.04878e-76
4.28739e-76
5.88384e-76
-1.24168e-75
-2.74395e-75
2.99829e-75
1.13834e-74
-4.47229e-75
-4.28964e-74
-8.36744e-75
1.46879e-73
1.15403e-73
-4.48645e-73
-6.76927e-73
1.1575e-72
3.09275e-72
-2.08055e-72
-1.21239e-71
-6.9749e-73
4.16356e-71
3.04967e-71
-1.23129e-70
-1.90728e-70
2.89879e-70
8.62585e-70
-3.70467e-70
-3.22526e-69
-1.13042e-69
1.0149e-68
1.15856e-68
-2.55313e-68
-5.92383e-68
3.95077e-68
2.31691e-67
5.46563e-68
-7.34508e-67
-7.92928e-67
1.79549e-66
4.17546e-66
-2.40856e-66
-1.59979e-65
-6.0264e-66
4.77363e-65
6.27301e-65
-1.00971e-64
-2.99292e-64
5.582e-65
1.03554e-63
7.93273e-64
-2.63421e-63
-5.12409e-63
3.61534e-63
2.02183e-62
8.25557e-63
-5.7304e-62
-8.44478e-62
9.92081e-62
3.7398e-61
6.78793e-62
-1.13004e-60
-1.40768e-60
2.11968e-60
6.76552e-60
5.53782e-61
-2.09175e-59
-2.47333e-59
3.88991e-59
1.21657e-58
1.40867e-59
-3.67397e-58
-4.64285e-58
6.18595e-58
2.17306e-57
6.07035e-58
-6.06908e-57
-9.09829e-57
7.99478e-57
3.7883e-56
2.12052e-56
-9.12658e-56
-1.77854e-55
6.07548e-56
6.23044e-55
5.96855e-55
-1.15419e-54
-3.29759e-54
-7.06878e-55
9.1403e-54
1.40394e-53
-9.38577e-54
-5.49408e-53
-4.44612e-53
1.06653e-52
2.7738e-52
5.38972e-53
-7.60313e-52
-1.2025e-51
6.20662e-52
4.45495e-51
4.35916e-51
-7.15663e-51
-2.30614e-50
-1.14901e-50
5.1933e-50
1.08575e-49
3.47849e-51
-3.15014e-49
-4.70519e-49
2.34024e-49
1.72569e-48
1.87921e-48
-2.23553e-48
-8.84158e-48
-6.84553e-48
1.53108e-47
4.32512e-47
2.20335e-47
-9.1115e-47
-2.05002e-46
-5.7036e-47
5.00644e-46
9.52852e-46
7.30835e-47
-2.61256e-45
-4.38932e-45
3.98784e-46
1.31529e-44
2.02282e-44
-4.34296e-45
-6.44849e-44
-9.39851e-44
2.66158e-44
3.09505e-43
4.425e-43
-1.27208e-43
-1.45734e-42
-2.11454e-42
4.77173e-43
6.72628e-42
1.02329e-41
-1.0653e-42
-3.03105e-41
-4.9865e-41
-3.24817e-42
1.32333e-40
2.42689e-40
6.52903e-41
-5.52392e-40
-1.16803e-39
-5.81603e-40
2.1539e-39
5.49648e-39
4.11475e-39
-7.48527e-39
-2.49553e-38
-2.56202e-38
2.04073e-38
1.07447e-37
1.4519e-37
-1.86923e-38
-4.27395e-37
-7.56765e-37
-2.83759e-37
1.49517e-36
3.6197e-36
2.93572e-36
-4.03781e-36
-1.56579e-35
-1.96144e-35
3.52461e-36
5.91154e-35
1.06708e-34
5.33839e-35
-1.77267e-34
-4.93344e-34
-5.14734e-34
2.72564e-34
1.90422e-33
3.12013e-33
1.30513e-33
-5.54157e-33
-1.47116e-32
-1.55722e-32
6.50959e-33
5.40626e-32
9.47483e-32
5.57146e-32
-1.3044e-31
-4.17083e-31
-5.35708e-31
-4.61764e-32
1.28827e-30
2.84674e-30
2.72377e-30
-1.52909e-30
-1.02792e-29
-1.81276e-29
-1.2645e-29
1.91537e-29
7.38834e-29
1.11672e-28
5.49279e-29
-1.64613e-28
-5.01346e-28
-6.85483e-28
-2.40756e-28
1.20605e-27
3.2923e-27
4.29103e-27
1.27708e-27
-7.97128e-27
-2.11718e-26
-2.77373e-26
-9.56179e-27
4.7996e-26
1.33425e-25
1.84722e-25
8.94244e-26
-2.56501e-25
-8.1536e-25
-1.24662e-24
-8.60315e-25
1.10242e-24
4.71474e-24
8.30098e-24
7.7907e-24
-2.23568e-24
-2.45815e-23
-5.27047e-23
-6.44584e-23
-2.3441e-23
1.0299e-22
3.04561e-22
4.78371e-22
4.0388e-22
-1.99102e-22
-1.47362e-21
-3.09292e-21
-3.92796e-21
-2.03103e-21
4.62398e-21
1.632e-20
2.89269e-20
3.16868e-20
8.06193e-21
-5.70477e-20
-1.61654e-19
-2.65144e-19
-2.7173e-19
-3.96141e-20
5.58122e-19
1.50416e-18
2.45683e-18
2.60043e-18
6.87127e-19
-4.51498e-18
-1.3196e-17
-2.29569e-17
-2.72659e-17
-1.51005e-17
2.64303e-17
1.0463e-16
2.08246e-16
2.91406e-16
2.62071e-16
-1.10658e-17
-6.54761e-16
-1.69421e-15
-2.90216e-15
-3.62815e-15
-2.6966e-15
1.47347e-15
1.03283e-14
2.40408e-14
3.97484e-14
4.94887e-14
3.87224e-14
-1.29413e-14
-1.26547e-13
-3.11685e-13
-5.4601e-13
-7.47813e-13
-7.48524e-13
-2.8019e-13
9.97199e-13
3.39505e-12
6.98672e-12
1.12667e-11
1.46937e-11
1.4207e-11
4.91988e-12
-1.9653e-11
-6.63089e-11
-1.39159e-10
-2.34268e-10
-3.31545e-10
-3.84223e-10
-3.07587e-10
2.91702e-11
8.01045e-10
2.20444e-09
4.39845e-09
7.3916e-09
1.08542e-08
1.38401e-08
1.44148e-08
9.21311e-09
-7.00365e-09
-4.16453e-08
-1.04189e-07
-2.05262e-07
-3.54289e-07
-5.54817e-07
-7.96298e-07
-1.04074e-06
-1.20213e-06
-1.11623e-06
-4.9759e-07
1.11955e-06
4.46038e-06
1.06127e-05
2.11584e-05
3.83376e-05
6.52478e-05
0.000106083
0.000166412
0.000253499
0.000376656
0.000547642
0.000781072
0.00109486
0.00151064
0.00205423
0.00275596
0.0036511
0.00478004
0.00618853
0.0079277
0.010054
0.0126288
0.0157182
0.0193923
0.0237243
0.0287897
0.0346649
0.0414261
0.0491478
0.0579008
0.0677512
0.0787584
0.0909735
0.104438
0.11918
0.13522
0.152558
0.171186
0.191077
0.212189
0.234467
0.25784
0.282222
0.307517
0.333614
0.360395
0.387731
0.415488
0.443529
0.471713
0.499899
0.52795
0.555729
0.583109
0.609968
0.636194
0.661683
0.686344
0.710097
0.732875
0.754622
0.775296
0.794865
0.813311
0.830625
0.846811
0.86188
0.875853
0.888758
0.90063
0.911509
0.92144
0.930471
0.938652
0.946035
0.952675
0.958623
0.963934
0.968657
0.972843
0.97654
0.979795
0.982649
0.985144
0.987317
0.989204
0.990837
0.992245
0.993456
0.994493
0.995379
0.996134
0.996774
0.997316
0.997773
0.998158
0.99848
0.99875
0.998974
0.99916
0.999313
0.999437
0.999536
0.999611
0.999665
0.999696
0.999702
0.99968
0.999623
0.999525
0.999374
0.999157
0.998856
0.998451
0.997915
0.99722
0.99633
0.995205
0.9938
0.992063
0.989939
0.987366
0.984278
0.980605
0.976273
0.971208
0.965334
0.958573
0.950851
0.942099
0.932248
0.921241
0.909026
0.895562
0.880819
0.86478
0.847442
0.828814
0.808923
0.787811
0.765533
0.74216
0.717778
0.692483
0.666386
0.639605
0.612269
0.584512
0.556471
0.528287
0.500101
0.47205
0.444271
0.416891
0.390032
0.363806
0.338317
0.313656
0.289903
0.267125
0.245378
0.224704
0.205135
0.186689
0.169375
0.153189
0.13812
0.124147
0.111242
0.0993697
0.0884907
0.0785599
0.0695294
0.0613483
0.0539646
0.0473251
0.0413766
0.0360665
0.0313432
0.027157
0.0234596
0.0202054
0.0173512
0.0148564
0.012683
0.0107961
0.0091632
0.0077549
0.00654422
0.0055068
0.00462069
0.00386624
0.0032259
0.0026841
0.00222711
0.00184285
0.00152062
0.00125178
0.00102516
0.00085085
0.000631508
)
;

boundaryField
{
    sides
    {
        type            zeroGradient;
    }
    empty
    {
        type            empty;
    }
}


// ************************************************************************* //
