/*--------------------------------*- C++ -*----------------------------------*\
| =========                 |                                                 |
| \\      /  F ield         | OpenFOAM: The Open Source CFD Toolbox           |
|  \\    /   O peration     | Version:  v2012                                 |
|   \\  /    A nd           | Website:  www.openfoam.com                      |
|    \\/     M anipulation  |                                                 |
\*---------------------------------------------------------------------------*/
FoamFile
{
    version     2.0;
    format      ascii;
    class       volScalarField;
    location    "0.002";
    object      mag(U);
}
// * * * * * * * * * * * * * * * * * * * * * * * * * * * * * * * * * * * * * //

dimensions      [0 1 -1 0 0 0 0];


internalField   nonuniform List<scalar> 
100
(
5.20183e-12
4.3441e-12
2.64614e-12
2.9656e-12
9.24835e-13
6.87062e-13
2.31792e-12
1.53167e-13
1.05029e-13
1.36975e-12
1.54625e-13
1.49374e-12
2.60036e-28
2.91746e-13
0
2.91746e-13
2.61591e-28
0
0
4.37619e-15
1.66295e-13
1.5623e-12
1.33984e-11
1.00422e-10
7.96258e-10
5.56445e-09
4.11207e-08
2.61142e-07
1.7803e-06
1.01474e-05
6.32404e-05
0.000318653
0.00179313
0.00783462
0.0390316
0.144386
0.611765
1.844
6.09336
12.3317
30.0637
51.5286
77.794
107.098
138.181
169.397
200.645
230.687
259.828
286.479
309.765
330.051
345.805
359.257
372.847
379.08
375.017
366.632
354.148
339.456
307.248
276.878
265.928
241.024
149.136
33.5439
4.46216
0.538922
0.0592169
0.00660585
0.000655122
7.15675e-05
6.54604e-06
7.1697e-07
6.23856e-08
6.88786e-09
5.87008e-10
6.4209e-11
5.14495e-12
6.82687e-13
1.88395e-14
6.27983e-13
3.13992e-15
6.24843e-13
1.16456e-27
1.18566e-27
6.27983e-13
3.13992e-15
6.24843e-13
2.63446e-30
6.24843e-13
4.20749e-13
6.27983e-15
1.03931e-12
3.96477e-27
4.11329e-13
7.473e-13
4.27029e-13
8.35218e-13
5.24366e-13
)
;

boundaryField
{
    sides
    {
        type            calculated;
        value           nonuniform List<scalar> 2(5.24366e-13 5.20183e-12);
    }
    empty
    {
        type            empty;
    }
}


// ************************************************************************* //
