/*--------------------------------*- C++ -*----------------------------------*\
| =========                 |                                                 |
| \\      /  F ield         | OpenFOAM: The Open Source CFD Toolbox           |
|  \\    /   O peration     | Version:  v2012                                 |
|   \\  /    A nd           | Website:  www.openfoam.com                      |
|    \\/     M anipulation  |                                                 |
\*---------------------------------------------------------------------------*/
FoamFile
{
    version     2.0;
    format      ascii;
    class       surfaceScalarField;
    location    "0.002";
    object      phi;
}
// * * * * * * * * * * * * * * * * * * * * * * * * * * * * * * * * * * * * * //

dimensions      [1 0 -1 0 0 0 0];
oriented        oriented;


internalField   nonuniform List<scalar> 
99
(
1.89786e-11
1.52696e-11
9.9547e-12
4.86011e-12
-5.18696e-13
-3.86535e-12
-4.47642e-12
-6.03961e-13
-3.22586e-12
-1.98241e-12
-3.18323e-12
-2.72848e-12
-5.18696e-13
-5.96856e-13
6.11067e-13
5.40012e-13
0
0
0
2.4869e-13
2.72138e-12
2.33911e-11
1.80549e-10
1.41971e-09
1.02343e-08
7.49493e-08
4.9454e-07
3.32651e-06
1.98801e-05
0.000121523
0.000649906
0.00355936
0.0167804
0.0806251
0.32879
1.33648
4.58564
14.6538
38.917
82.7839
112.087
165.706
222.086
272.819
316.342
349.54
375.837
397.8
406.545
407.684
417.802
423.228
419.36
417.186
402.13
342.947
273.281
231.435
205.038
191.583
189.589
237.92
276.997
248.706
49.7562
8.21603
1.01102
0.117188
0.0127905
0.00139691
0.000139807
1.48459e-05
1.39034e-06
1.46965e-07
1.32458e-08
1.40422e-09
1.24448e-10
1.29972e-11
1.09779e-12
9.76996e-14
-6.57252e-14
-8.08242e-14
7.90479e-14
6.70575e-14
0
-6.57252e-14
-7.9492e-14
8.03801e-14
6.70575e-14
-6.61693e-14
-1.32783e-13
-3.90799e-14
1.10134e-13
1.27898e-13
-4.35207e-14
-1.44773e-13
-3.19744e-14
1.3145e-13
1.74083e-13
)
;

boundaryField
{
    sides
    {
        type            calculated;
        value           nonuniform List<scalar> 2(1.21508e-13 -2.07569e-11);
    }
    empty
    {
        type            empty;
        value           nonuniform List<scalar> 0();
    }
}


// ************************************************************************* //
