/*--------------------------------*- C++ -*----------------------------------*\
| =========                 |                                                 |
| \\      /  F ield         | OpenFOAM: The Open Source CFD Toolbox           |
|  \\    /   O peration     | Version:  v2012                                 |
|   \\  /    A nd           | Website:  www.openfoam.com                      |
|    \\/     M anipulation  |                                                 |
\*---------------------------------------------------------------------------*/
FoamFile
{
    version     2.0;
    format      ascii;
    class       volVectorField;
    location    "0.002";
    object      U;
}
// * * * * * * * * * * * * * * * * * * * * * * * * * * * * * * * * * * * * * //

dimensions      [0 1 -1 0 0 0 0];


internalField   nonuniform List<vector> 
100
(
(5.20183e-12 0 0)
(4.3441e-12 0 0)
(2.64614e-12 0 0)
(2.9656e-12 0 0)
(-9.24835e-13 0 0)
(6.87062e-13 0 0)
(-2.31792e-12 0 0)
(-1.53167e-13 0 0)
(-1.05029e-13 0 0)
(-1.36975e-12 0 0)
(1.54625e-13 0 0)
(-1.49374e-12 0 0)
(-2.60036e-28 0 0)
(-2.91746e-13 0 0)
(0 0 0)
(2.91746e-13 0 0)
(2.61591e-28 0 0)
(0 0 0)
(0 0 0)
(4.37619e-15 0 0)
(1.66295e-13 0 0)
(1.5623e-12 0 0)
(1.33984e-11 0 0)
(1.00422e-10 0 0)
(7.96258e-10 0 0)
(5.56445e-09 0 0)
(4.11207e-08 0 0)
(2.61142e-07 0 0)
(1.7803e-06 0 0)
(1.01474e-05 0 0)
(6.32404e-05 0 0)
(0.000318653 0 0)
(0.00179313 0 0)
(0.00783462 0 0)
(0.0390316 0 0)
(0.144386 0 0)
(0.611765 0 0)
(1.844 0 0)
(6.09336 0 0)
(12.3317 0 0)
(30.0637 0 0)
(51.5286 0 0)
(77.794 0 0)
(107.098 0 0)
(138.181 0 0)
(169.397 0 0)
(200.645 0 0)
(230.687 0 0)
(259.828 0 0)
(286.479 0 0)
(309.765 0 0)
(330.051 0 0)
(345.805 0 0)
(359.257 0 0)
(372.847 0 0)
(379.08 0 0)
(375.017 0 0)
(366.632 0 0)
(354.148 0 0)
(339.456 0 0)
(307.248 0 0)
(276.878 0 0)
(265.928 0 0)
(241.024 0 0)
(149.136 0 0)
(33.5439 0 0)
(4.46216 0 0)
(0.538922 0 0)
(0.0592169 0 0)
(0.00660585 0 0)
(0.000655122 0 0)
(7.15675e-05 0 0)
(6.54604e-06 0 0)
(7.1697e-07 0 0)
(6.23856e-08 0 0)
(6.88786e-09 0 0)
(5.87008e-10 0 0)
(6.4209e-11 0 0)
(5.14495e-12 0 0)
(6.82687e-13 0 0)
(1.88395e-14 0 0)
(-6.27983e-13 0 0)
(3.13992e-15 0 0)
(6.24843e-13 0 0)
(1.16456e-27 0 0)
(-1.18566e-27 0 0)
(-6.27983e-13 0 0)
(3.13992e-15 0 0)
(6.24843e-13 0 0)
(-2.63446e-30 0 0)
(-6.24843e-13 0 0)
(-4.20749e-13 0 0)
(6.27983e-15 0 0)
(1.03931e-12 0 0)
(3.96477e-27 0 0)
(-4.11329e-13 0 0)
(-7.473e-13 0 0)
(4.27029e-13 0 0)
(8.35218e-13 0 0)
(5.24366e-13 0 0)
)
;

boundaryField
{
    sides
    {
        type            zeroGradient;
    }
    empty
    {
        type            empty;
    }
}


// ************************************************************************* //
