/*--------------------------------*- C++ -*----------------------------------*\
| =========                 |                                                 |
| \\      /  F ield         | OpenFOAM: The Open Source CFD Toolbox           |
|  \\    /   O peration     | Version:  v2012                                 |
|   \\  /    A nd           | Website:  www.openfoam.com                      |
|    \\/     M anipulation  |                                                 |
\*---------------------------------------------------------------------------*/
FoamFile
{
    version     2.0;
    format      ascii;
    class       volScalarField;
    location    "0.08";
    object      T;
}
// * * * * * * * * * * * * * * * * * * * * * * * * * * * * * * * * * * * * * //

dimensions      [0 0 0 1 0 0 0];


internalField   nonuniform List<scalar> 
1000
(
0
0
0
0
0
0
0
0
0
0
0
0
0
0
0
0
0
0
0
0
0
0
0
0
0
0
0
0
0
0
0
0
0
0
0
0
0
0
0
0
0
0
0
0
0
0
0
0
0
0
0
0
0
0
0
0
0
0
0
0
0
0
0
0
0
0
0
0
0
0
0
0
0
0
0
0
0
0
0
0
0
0
0
0
0
0
0
0
0
0
0
0
0
0
0
0
0
0
0
0
0
0
0
0
0
0
0
0
0
0
0
0
0
0
0
0
0
0
0
0
0
0
0
0
0
0
0
0
0
0
0
0
0
0
0
0
0
0
0
0
0
0
0
0
0
0
0
0
0
0
0
0
0
0
0
0
0
0
0
0
0
0
0
0
0
0
0
0
0
0
0
0
0
0
0
0
0
0
0
0
0
0
0
0
0
0
0
0
0
0
0
0
0
0
0
0
0
0
0
0
0
0
0
0
0
0
0
0
0
0
0
0
0
0
0
0
0
0
0
0
0
0
0
0
0
0
0
0
0
0
0
0
0
0
0
0
0
0
0
0
0
0
0
0
0
0
0
0
0
0
0
0
0
0
0
0
0
0
0
0
0
0
0
0
0
0
0
0
0
0
0
0
0
0
0
0
0
0
0
0
0
0
0
0
0
0
0
0
0
0
0
0
0
0
0
0
0
0
0
0
0
0
0
0
0
0
0
0
0
0
0
0
0
0
0
0
0
0
0
0
0
0
0
0
0
0
0
0
0
0
0
0
0
0
0
0
0
0
0
0
0
0
0
0
0
0
0
0
0
0
0
0
0
0
0
0
0
0
0
0
0
0
0
0
0
0
0
0
0
0
0
0
0
0
0
0
0
0
0
0
0
0
0
0
0
0
0
0
0
0
0
0
0
0
0
0
0
0
0
0
0
0
0
0
0
0
0
0
0
0
0
0
0
0
0
0
0
0
0
0
0
0
0
0
0
0
0
0
0
0
0
0
0
0
0
0
0
0
0
0
0
0
0
0
0
0
0
0
0
0
0.00152244
0.00964211
0.0326479
0.0786593
0.151511
0.248646
0.361971
0.480692
0.594466
0.695599
0.779876
0.846276
0.896076
0.93183
0.956518
0.972976
0.983605
0.990274
0.99435
0.996781
0.998199
0.99901
0.999464
0.999714
0.99985
0.999922
0.99996
0.99998
0.99999
0.999995
0.999998
0.999999
0.999999
1
1
1
1
1
1
1
1
1
1
1
1
1
1
1
1
1
1
1
1
1
1
1
1
1
1
1
1
1
1
1
1
1
1
1
1
1
1
1
1
1
1
1
1
1
1
1
1
1
1
1
1
1
1
1
1
1
1
1
1
1
1
1
1
1
1
1
0.998478
0.990358
0.967352
0.921341
0.848489
0.751354
0.638029
0.519308
0.405534
0.304401
0.220124
0.153724
0.103924
0.0681696
0.0434823
0.0270241
0.0163948
0.00972552
0.00564982
0.0032187
0.00180055
0.000990173
0.000535873
0.000285678
0.000150156
7.7878e-05
3.98856e-05
2.01858e-05
1.01014e-05
5.00119e-06
2.4511e-06
1.18977e-06
5.72246e-07
2.72839e-07
1.29007e-07
6.05148e-08
2.81714e-08
1.30196e-08
5.97533e-09
2.72413e-09
1.23399e-09
5.55555e-10
2.48644e-10
1.10653e-10
4.8975e-11
2.15626e-11
9.44551e-12
4.11744e-12
1.7864e-12
7.71534e-13
3.31756e-13
1.42049e-13
6.05715e-14
2.57259e-14
1.08843e-14
4.58783e-15
1.92683e-15
8.06412e-16
3.3635e-16
1.39827e-16
5.79429e-17
2.39362e-17
9.85813e-18
4.04815e-18
1.65758e-18
6.76838e-19
2.75624e-19
1.11945e-19
4.53495e-20
1.83255e-20
7.38716e-21
2.97075e-21
1.19192e-21
4.77139e-22
1.90583e-22
7.59599e-23
3.02114e-23
1.19913e-23
4.74992e-24
1.87782e-24
7.4095e-25
2.91816e-25
1.14718e-25
4.50167e-26
1.76341e-26
6.89582e-27
2.69208e-27
1.04924e-27
4.08281e-28
1.5862e-28
6.15296e-29
2.38315e-29
9.21661e-30
3.55925e-30
1.37254e-30
5.28544e-31
2.03254e-31
7.80572e-32
2.99371e-32
1.14668e-32
4.38654e-33
1.67593e-33
6.39523e-34
2.43742e-34
9.27878e-35
3.52813e-35
1.33998e-35
5.08354e-36
1.92643e-36
7.29232e-37
2.75749e-37
1.04161e-37
3.93051e-38
1.48166e-38
5.57976e-39
2.0992e-39
7.88991e-40
2.96262e-40
1.1114e-40
4.16549e-41
1.55979e-41
5.83548e-42
2.18124e-42
8.14619e-43
3.03972e-43
1.1333e-43
4.22182e-44
1.57144e-44
5.84446e-45
2.17193e-45
8.06509e-46
2.99252e-46
1.10952e-46
4.1106e-47
1.52179e-47
5.62974e-48
2.08118e-48
7.68817e-49
2.83813e-49
1.04699e-49
3.85972e-50
1.42193e-50
5.23495e-51
1.92603e-51
7.08162e-52
2.60211e-52
9.55534e-53
3.50668e-53
1.28612e-53
4.71413e-54
1.72689e-54
6.32221e-55
2.31324e-55
8.4591e-56
3.09157e-56
1.12925e-56
4.12251e-57
1.50416e-57
5.4852e-58
1.99921e-58
7.28271e-59
2.65156e-59
9.64908e-60
3.50953e-60
1.27583e-60
4.63575e-61
1.68358e-61
6.1113e-62
2.21731e-62
8.04102e-63
2.91469e-63
1.05601e-63
3.82427e-64
1.38429e-64
5.00856e-65
1.81136e-65
6.54792e-66
2.36599e-66
8.54548e-67
3.08513e-67
1.11334e-67
4.01605e-68
1.44808e-68
5.21924e-69
1.88038e-69
6.77191e-70
2.43783e-70
8.77255e-71
3.15558e-71
1.13466e-71
4.07836e-72
1.46535e-72
5.26305e-73
1.88961e-73
6.78184e-74
2.43313e-74
8.72624e-75
3.12849e-75
1.12122e-75
4.01692e-76
1.43862e-76
5.15053e-77
1.84336e-77
6.59512e-78
2.3588e-78
8.43365e-79
3.01439e-79
1.07706e-79
3.84721e-80
1.37376e-80
4.9039e-81
1.74999e-81
6.24304e-82
2.22651e-82
7.93816e-83
2.82934e-83
1.00814e-83
3.59111e-84
1.27882e-84
4.55266e-85
1.6203e-85
5.76503e-86
2.05062e-86
7.29201e-87
2.59232e-87
9.2132e-88
3.27351e-88
1.16279e-88
4.12924e-89
1.46597e-89
5.20311e-90
1.84624e-90
6.5494e-91
2.32275e-91
8.23557e-92
2.91927e-92
1.03454e-92
3.6653e-93
1.29827e-93
4.59743e-94
1.62765e-94
5.76102e-95
2.03861e-95
7.2122e-96
2.55093e-96
9.02044e-97
3.18901e-97
1.12716e-97
3.98304e-98
1.40717e-98
4.97026e-99
1.75516e-99
6.19666e-100
2.18727e-100
7.71888e-101
2.7234e-101
9.60674e-102
3.38803e-102
1.19461e-102
4.2113e-103
1.48428e-103
5.23026e-104
1.84265e-104
6.49045e-105
2.28569e-105
8.04775e-106
2.83299e-106
9.97077e-107
3.50855e-107
1.23436e-107
4.34182e-108
1.52693e-108
5.36887e-109
1.8874e-109
6.63384e-110
2.33122e-110
8.19073e-111
2.87727e-111
1.01056e-111
3.54863e-112
1.2459e-112
4.37348e-113
1.53495e-113
5.38622e-114
1.88973e-114
6.62884e-115
2.32488e-115
8.15248e-116
2.85828e-116
1.00195e-116
3.51167e-117
1.23058e-117
4.31154e-118
1.51037e-118
5.2901e-119
1.85256e-119
6.48653e-120
2.27082e-120
7.94845e-121
2.78172e-121
9.73366e-122
3.40542e-122
1.19124e-122
4.16637e-123
1.45697e-123
5.09423e-124
1.7809e-124
6.22493e-125
2.17553e-125
7.60206e-126
2.65603e-126
9.27835e-127
3.24075e-127
1.13177e-127
3.95189e-128
1.37972e-128
4.81633e-129
1.68105e-129
5.86653e-130
2.04702e-130
7.14173e-131
2.49129e-131
8.68931e-132
3.03031e-132
1.05665e-132
3.68396e-133
1.28422e-133
4.4762e-134
1.55998e-134
5.43592e-135
1.89396e-135
6.59796e-136
2.29823e-136
8.00427e-137
2.78737e-137
9.70536e-138
3.37889e-138
1.1762e-138
4.09388e-139
1.42474e-139
4.9577e-140
1.72494e-140
6.00085e-141
2.08737e-141
7.25995e-142
2.52474e-142
8.77903e-143
3.05229e-143
1.06109e-143
3.68833e-144
1.2819e-144
4.45483e-145
1.54795e-145
5.37813e-146
1.86835e-146
6.48984e-147
2.25404e-147
7.82781e-148
2.71813e-148
9.4374e-149
3.27632e-149
1.13729e-149
3.9474e-150
1.36994e-150
4.75387e-151
1.64947e-151
5.72265e-152
1.98519e-152
6.88592e-153
2.38823e-153
8.28216e-154
2.87188e-154
9.95736e-155
3.45205e-155
1.19665e-155
4.14773e-156
1.43751e-156
4.98158e-157
1.72615e-157
5.98066e-158
2.07193e-158
7.17726e-159
2.48599e-159
8.60988e-160
2.98162e-160
1.03244e-160
3.57469e-161
1.23757e-161
4.28407e-162
1.48287e-162
5.13228e-163
1.77614e-163
6.14612e-164
2.1266e-164
7.3575e-165
2.54527e-165
8.80438e-166
3.04526e-166
1.0532e-166
3.64213e-167
1.2594e-167
4.35443e-168
1.50543e-168
5.20417e-169
1.79889e-169
6.21755e-170
2.1488e-170
7.42567e-171
2.56588e-171
8.86546e-172
3.06287e-172
1.05808e-172
3.65486e-173
1.26237e-173
4.35981e-174
1.50561e-174
5.19899e-175
1.79511e-175
6.19763e-176
2.13957e-176
7.38568e-177
2.54929e-177
8.7986e-178
3.0365e-178
1.04784e-178
3.61565e-179
1.2475e-179
4.3039e-180
1.48473e-180
5.12155e-181
1.76652e-181
6.09263e-182
2.10114e-182
7.24559e-183
2.49838e-183
8.6141e-184
2.96981e-184
1.0238e-184
3.52912e-185
1.21643e-185
4.19252e-186
1.44488e-186
4.97914e-187
1.71572e-187
5.91162e-188
2.03674e-188
7.01667e-189
2.41711e-189
8.32589e-190
2.8677e-190
)
;

boundaryField
{
    sides
    {
        type            inletOutlet;
        inletValue      uniform 0;
        value           nonuniform List<scalar> 2(2.8677e-190 0);
    }
    empty
    {
        type            empty;
    }
}


// ************************************************************************* //
