/*--------------------------------*- C++ -*----------------------------------*\
| =========                 |                                                 |
| \\      /  F ield         | OpenFOAM: The Open Source CFD Toolbox           |
|  \\    /   O peration     | Version:  v2012                                 |
|   \\  /    A nd           | Website:  www.openfoam.com                      |
|    \\/     M anipulation  |                                                 |
\*---------------------------------------------------------------------------*/
FoamFile
{
    version     2.0;
    format      ascii;
    class       volScalarField;
    location    "0.02";
    object      T;
}
// * * * * * * * * * * * * * * * * * * * * * * * * * * * * * * * * * * * * * //

dimensions      [0 0 0 1 0 0 0];


internalField   nonuniform List<scalar> 
1000
(
0
0
0
0
0
0
0
0
0
0
0
0
0
0
0
0
0
0
0
0
0
0
0
0
0
0
0
0
0
0
0
0
0
0
0
0
0
0
0
0
0
0
0
0
0
0
0
0
0
0
0
0
0
0
0
0
0
0
0
0
0
0
0
0
0
0
0
0
0
0
0
0
0
0
0
0
0
0
0
0
0
0
0
0
0
0
0
0
0
0
0
0
0
0
0
0
0
0
0
0
0
0
0
0
0
0
0
0
0
0
0
0
0
0
0
0
0
0
0
0
0
0
0
0
0
0
0
0
0
0
0
0
0
0
0
0
0
0
0
0
0
0
0
0
0
0
0
0
0
0
0
0
0
0
0
0
0
0
0
0
0
0
0
0
0
0
0
0
0
0
0
0
0
0
0
0
0
0
0
0
0
0
0
0
0
0
0
0
0
0
0
0
0
0
0
0
0
0
0
0
0
0
0
0
0
0
0
0
0
0
0
0
0
0
0
0
0
0
0
0
0
0
0
0
0
0
0
0
0
0
0
0
0
0
0
0
0
0
0
0
0
0
0
0
0
0
0
0
0
0
0
0
0
0
0
0
0
0
0
0
0
0
0
0
0
0
0
0
0
0
0
0
0
0
0
0
0
0
0
0
0
0
0
0
0
0
0
0
0
0
0
0
0
0
0
0
0
0
0
0
0
0
0
0
0
0
0
0
0
0
0
0
0
0
0
0
0
0
0
0
0
0
0
0
0
0
0
0
0
0
0
0
0
0
0
0
0
0
0
0
0
0
0
0
0
0
0
0
0
0
0
0
0
0
0
0
0
0
0
0
0
0
0
0
0
0
0
0
0
0
0
0
0
0
0
0
0
0
0
0
0
0
0
0
0
0
0
0
0
0
0
0
0
0
0
0
0
0
0
0
0
0
0
0
0
0
0
0
0
0
0
0
0
0
0
0
0
0
0
0
0
0
0
0
0
0
0
0
0
0
0
0
0
0
0
0
0
0
0
0
0
0
0
0
0
0
0
0
0
0
0.197531
0.460905
0.680384
0.826703
0.912056
0.957578
0.980338
0.991177
0.996144
0.998352
0.999309
0.999715
0.999884
0.999953
0.999981
0.999993
0.999997
0.999999
1
1
1
1
1
1
1
1
1
1
1
1
1
1
1
1
1
1
1
1
1
1
1
1
1
1
1
1
1
1
1
1
1
1
1
1
1
1
1
1
1
1
1
1
1
1
1
1
1
1
1
1
1
1
1
1
1
1
1
1
1
1
1
1
1
1
1
1
1
1
1
1
1
1
1
1
1
1
1
1
1
1
0.802469
0.539095
0.319616
0.173297
0.0879439
0.0424224
0.0196616
0.00882318
0.00385555
0.00164772
0.000690993
0.000285109
0.00011599
4.66083e-05
1.85251e-05
7.29182e-06
2.84532e-06
1.10159e-06
4.23472e-07
1.61743e-07
6.14135e-08
2.31928e-08
8.71525e-09
3.25994e-09
1.2142e-09
4.50457e-10
1.66501e-10
6.13318e-11
2.25195e-11
8.24366e-12
3.0092e-12
1.09553e-12
3.97836e-13
1.44129e-13
5.20982e-14
1.87918e-14
6.76454e-15
2.43037e-15
8.71595e-16
3.12033e-16
1.11523e-16
3.97964e-17
1.41796e-17
5.04494e-18
1.79245e-18
6.36003e-19
2.25382e-19
7.97713e-20
2.8201e-20
9.95845e-21
3.51274e-21
1.23779e-21
4.3572e-22
1.53231e-22
5.38365e-23
1.88979e-23
6.62782e-24
2.32252e-24
8.13191e-25
2.84499e-25
9.94573e-26
3.47432e-26
1.2128e-26
4.23063e-27
1.47478e-27
5.13762e-28
1.78863e-28
6.22312e-29
2.16389e-29
7.5198e-30
2.61174e-30
9.06594e-31
3.14529e-31
1.09064e-31
3.77988e-32
1.30936e-32
4.53343e-33
1.56888e-33
5.4269e-34
1.87637e-34
6.48473e-35
2.24016e-35
7.73543e-36
2.67e-36
9.21222e-37
3.17722e-37
1.09538e-37
3.775e-38
1.30051e-38
4.4787e-39
1.54184e-39
5.30611e-40
1.82544e-40
6.27795e-41
2.15838e-41
7.41822e-42
2.54881e-42
8.75477e-43
3.00623e-43
1.03198e-43
3.54161e-44
1.21508e-44
4.16766e-45
1.4291e-45
4.8991e-46
1.67903e-46
5.75293e-47
1.97066e-47
6.74881e-48
2.31067e-48
7.90944e-49
2.70678e-49
9.26105e-50
3.16789e-50
1.08339e-50
3.70428e-51
1.26628e-51
4.32779e-52
1.47881e-52
5.05207e-53
1.7256e-53
5.89285e-54
2.01199e-54
6.86824e-55
2.34413e-55
7.99907e-56
2.72909e-56
9.30932e-57
3.17499e-57
1.08266e-57
3.69118e-58
1.25825e-58
4.28841e-59
1.46135e-59
4.97901e-60
1.69614e-60
5.77715e-61
1.96743e-61
6.69911e-62
2.28071e-62
7.76355e-63
2.64233e-63
8.99188e-64
3.05952e-64
1.04086e-64
3.54059e-65
1.2042e-65
4.09509e-66
1.39242e-66
4.73391e-67
1.60921e-67
5.46956e-68
1.85882e-68
6.31636e-69
2.14607e-69
7.29069e-70
2.47652e-70
8.4113e-71
2.8565e-71
9.69963e-72
3.29327e-72
1.11802e-72
3.79511e-73
1.28811e-73
4.37151e-74
1.48343e-74
5.03331e-75
1.70764e-75
5.79287e-76
1.96493e-76
6.66434e-77
2.26008e-77
7.66385e-78
2.59853e-78
8.80984e-79
2.98652e-79
1.01233e-79
3.43115e-80
1.16283e-80
3.94053e-81
1.33522e-81
4.52389e-82
1.53261e-82
5.19178e-83
1.75858e-83
5.95622e-84
2.01717e-84
6.83092e-85
2.31302e-85
7.83147e-86
2.65139e-86
8.97568e-87
3.03828e-87
1.02838e-87
3.48053e-88
1.17789e-88
3.98594e-89
1.34872e-89
4.56335e-90
1.54388e-90
5.22287e-91
1.76675e-91
5.97597e-92
2.02121e-92
6.83573e-93
2.31168e-93
7.81699e-94
2.64315e-94
8.93668e-95
3.02135e-95
1.0214e-95
3.45273e-96
1.16708e-96
3.94468e-97
1.3332e-97
4.50557e-98
1.52257e-98
5.14492e-99
1.73841e-99
5.87354e-100
1.98436e-100
6.70373e-101
2.26457e-101
7.64943e-102
2.58373e-102
8.72651e-103
2.94719e-103
9.95295e-104
3.36102e-104
1.13492e-104
3.83209e-105
1.29385e-105
4.36823e-106
1.4747e-106
4.97829e-107
1.68048e-107
5.67236e-108
1.91457e-108
6.46183e-109
2.18081e-109
7.35968e-110
2.48357e-110
8.38057e-111
2.8278e-111
9.54118e-112
3.2191e-112
1.08604e-112
3.66383e-113
1.23596e-113
4.16921e-114
1.40631e-114
4.74341e-115
1.59985e-115
5.39569e-116
1.81968e-116
6.13654e-117
2.06934e-117
6.97786e-118
2.35284e-118
7.93313e-119
2.67471e-119
9.0176e-120
3.04009e-120
1.02486e-120
3.45479e-121
1.16456e-121
3.9254e-122
1.32309e-122
4.45938e-123
1.50294e-123
5.06517e-124
1.70698e-124
5.75234e-125
1.9384e-125
6.5317e-126
2.20085e-126
7.41549e-127
2.49846e-127
8.41757e-128
2.83587e-128
9.55363e-129
3.21836e-129
1.08414e-129
3.6519e-130
1.23009e-130
4.14324e-131
1.39549e-131
4.70001e-132
1.5829e-132
5.33083e-133
1.79523e-133
6.04548e-134
2.03576e-134
6.85498e-135
2.30819e-135
7.77182e-136
2.61673e-136
8.81009e-137
2.96611e-137
9.98575e-138
3.3617e-138
1.13168e-138
3.80956e-139
1.28236e-139
4.31652e-140
1.45292e-140
4.89032e-141
1.64596e-141
5.53971e-142
1.86441e-142
6.27456e-143
2.1116e-143
7.10601e-144
2.39126e-144
8.04667e-145
2.70765e-145
9.11077e-146
3.06553e-146
1.03144e-146
3.47031e-147
1.16756e-147
3.92808e-148
1.3215e-148
4.44573e-149
1.49557e-149
5.03103e-150
1.69237e-150
5.69276e-151
1.91486e-151
6.44081e-152
2.16637e-152
7.28638e-153
2.45064e-153
8.24206e-154
2.77192e-154
9.32211e-155
3.13499e-155
1.05426e-155
3.54525e-156
1.19216e-156
4.00878e-157
1.34796e-157
4.53245e-158
1.52397e-158
5.12402e-159
1.7228e-159
5.79223e-160
1.94736e-160
6.54693e-161
2.20099e-161
7.39924e-162
2.4874e-162
8.36171e-163
2.81082e-163
9.44848e-164
3.176e-164
1.06755e-164
3.58828e-165
1.20607e-165
4.0537e-166
1.36245e-166
4.57907e-167
1.53895e-167
5.17207e-168
1.73817e-168
5.84134e-169
1.96301e-169
6.59663e-170
2.21673e-170
7.44892e-171
2.50303e-171
8.41061e-172
2.82606e-172
9.49565e-173
3.1905e-173
1.07197e-173
3.60165e-174
1.21006e-174
4.06543e-175
1.36583e-175
4.58856e-176
1.54152e-176
5.17859e-177
1.73966e-177
5.84401e-178
1.96312e-178
6.5944e-179
2.21511e-179
7.44056e-180
2.49924e-180
8.39464e-181
2.8196e-181
9.47032e-182
3.18078e-182
1.0683e-182
3.58795e-183
1.20501e-183
4.04694e-184
1.35911e-184
4.5643e-185
1.5328e-185
5.14742e-186
1.72856e-186
5.80461e-187
1.94918e-187
6.54523e-188
2.19781e-188
7.37982e-189
2.47796e-189
8.32024e-190
2.79363e-190
9.37983e-191
3.14929e-191
1.05736e-191
3.54999e-192
1.19185e-192
4.00139e-193
1.34336e-193
4.50988e-194
1.51402e-194
5.08265e-195
1.70625e-195
5.72777e-196
1.92275e-196
6.45436e-197
2.16659e-197
7.27263e-198
2.44118e-198
8.19411e-199
2.75041e-199
9.23176e-200
3.0986e-200
1.04001e-200
3.49065e-201
1.17156e-201
3.93205e-202
1.31967e-202
4.429e-203
1.48641e-203
4.98845e-204
1.67411e-204
5.61822e-205
1.88541e-205
6.3271e-206
2.12324e-206
7.12501e-207
2.39092e-207
8.02306e-208
2.6922e-208
9.03376e-209
)
;

boundaryField
{
    sides
    {
        type            inletOutlet;
        inletValue      uniform 0;
        value           nonuniform List<scalar> 2(9.03376e-209 0);
    }
    empty
    {
        type            empty;
    }
}


// ************************************************************************* //
