/*--------------------------------*- C++ -*----------------------------------*\
| =========                 |                                                 |
| \\      /  F ield         | OpenFOAM: The Open Source CFD Toolbox           |
|  \\    /   O peration     | Version:  v2012                                 |
|   \\  /    A nd           | Website:  www.openfoam.com                      |
|    \\/     M anipulation  |                                                 |
\*---------------------------------------------------------------------------*/
FoamFile
{
    version     2.0;
    format      ascii;
    class       volScalarField;
    location    "0.02";
    object      T;
}
// * * * * * * * * * * * * * * * * * * * * * * * * * * * * * * * * * * * * * //

dimensions      [0 0 0 1 0 0 0];


internalField   nonuniform List<scalar> 
1000
(
4.99099e-276
-2.48069e-275
1.03482e-274
-4.35652e-274
1.83309e-273
-7.71316e-273
3.24545e-272
-1.36556e-271
5.74565e-271
-2.41747e-270
1.01713e-269
-4.27944e-269
1.80048e-268
-7.57504e-268
3.18694e-267
-1.34078e-266
5.64068e-266
-2.37301e-265
9.983e-265
-4.19968e-264
1.7667e-263
-7.43197e-263
3.12635e-262
-1.31512e-261
5.53202e-261
-2.327e-260
9.78817e-260
-4.11718e-259
1.73177e-258
-7.28406e-258
3.06373e-257
-1.2886e-256
5.41976e-256
-2.27947e-255
9.58696e-255
-4.032e-254
1.69571e-253
-7.13142e-253
2.99911e-252
-1.26125e-251
5.30399e-251
-2.23047e-250
9.37956e-250
-3.94421e-249
1.65856e-248
-6.97418e-248
2.93257e-247
-1.23309e-246
5.18482e-246
-2.18004e-245
9.16614e-245
-3.85391e-244
1.62035e-243
-6.81249e-243
2.86415e-242
-1.20414e-241
5.06234e-241
-2.12822e-240
8.94693e-240
-3.76116e-239
1.58111e-238
-6.64651e-238
2.79394e-237
-1.17444e-236
4.9367e-236
-2.07508e-235
8.72213e-235
-3.66608e-234
1.5409e-233
-6.47642e-233
2.722e-232
-1.14402e-231
4.80803e-231
-2.02066e-230
8.49201e-230
-3.56877e-229
1.49974e-228
-6.30241e-228
2.64842e-227
-1.1129e-226
4.67648e-226
-1.96504e-225
8.25683e-225
-3.46934e-224
1.45771e-223
-6.12468e-223
2.57328e-222
-1.08114e-221
4.5422e-221
-1.90827e-220
8.01688e-220
-3.36791e-219
1.41483e-218
-5.94347e-218
2.49669e-217
-1.04877e-216
4.40537e-216
-1.85045e-215
7.77249e-215
-3.26462e-214
1.37118e-213
-5.75901e-213
2.41874e-212
-1.01583e-211
4.26619e-211
-1.79163e-210
7.52397e-210
-3.15962e-209
1.32682e-208
-5.57156e-208
2.33954e-207
-9.82368e-207
4.12483e-206
-1.73192e-205
7.2717e-205
-3.05305e-204
1.2818e-203
-5.3814e-203
2.25922e-202
-9.4844e-202
3.98153e-201
-1.67139e-200
7.01606e-200
-2.94508e-199
1.2362e-198
-5.18882e-198
2.17789e-197
-9.14095e-197
3.83649e-196
-1.61014e-195
6.75745e-195
-2.83588e-194
1.19009e-193
-4.99413e-193
2.09569e-192
-8.7939e-192
3.68997e-191
-1.54828e-190
6.49629e-190
-2.72563e-189
1.14355e-188
-4.79767e-188
2.01276e-187
-8.44382e-187
3.5422e-186
-1.48591e-185
6.23304e-185
-2.61452e-184
1.09666e-183
-4.59976e-183
1.92923e-182
-8.09135e-182
3.39346e-181
-1.42314e-180
5.96817e-180
-2.50276e-179
1.0495e-178
-4.40077e-178
1.84528e-177
-7.73712e-177
3.24401e-176
-1.36009e-175
5.70218e-175
-2.39054e-174
1.00216e-173
-4.20109e-173
1.76105e-172
-7.38182e-172
3.09414e-171
-1.29688e-170
5.43557e-170
-2.2781e-169
9.54739e-169
-4.0011e-168
1.67671e-167
-7.02616e-167
2.94416e-166
-1.23364e-165
5.1689e-165
-2.16566e-164
9.07329e-164
-3.80121e-163
1.59243e-162
-6.67086e-162
2.79438e-161
-1.1705e-160
4.90271e-160
-2.05345e-159
8.60031e-159
-3.60184e-158
1.5084e-157
-6.31669e-157
2.6451e-156
-1.10759e-155
4.63759e-155
-1.94172e-154
8.12947e-154
-3.40344e-153
1.4248e-152
-5.96442e-152
2.49668e-151
-1.04505e-150
4.37412e-150
-1.83072e-149
7.66186e-149
-3.20645e-148
1.34181e-147
-5.61487e-147
2.34944e-146
-9.83033e-146
4.11291e-145
-1.72071e-144
7.19854e-144
-3.01133e-143
1.25965e-142
-5.26886e-142
2.20374e-141
-9.21683e-141
3.8546e-140
-1.61195e-139
6.74065e-139
-2.81856e-138
1.17849e-137
-4.92723e-137
2.05994e-136
-8.61151e-136
3.59981e-135
-1.50471e-134
6.28931e-134
-2.62861e-133
1.09856e-132
-4.59084e-132
1.91838e-131
-8.01589e-131
3.3492e-130
-1.39927e-129
5.84569e-129
-2.44197e-128
1.02004e-127
-4.26056e-127
1.77945e-126
-7.43152e-126
3.10341e-125
-1.2959e-124
5.41094e-124
-2.25915e-123
9.4316e-123
-3.93727e-122
1.64352e-121
-6.85997e-121
2.86311e-120
-1.19487e-119
4.98624e-119
-2.08062e-118
8.68116e-118
-3.62185e-117
1.51095e-116
-6.3028e-116
2.62896e-115
-1.09648e-114
4.57277e-114
-1.90688e-113
7.9512e-113
-3.31517e-112
1.38211e-111
-5.76156e-111
2.40161e-110
-1.00098e-109
4.17168e-109
-1.73843e-108
7.24379e-108
-3.0181e-107
1.25737e-106
-5.23781e-106
2.18171e-105
-9.08663e-105
3.78414e-104
-1.57575e-103
6.56096e-103
-2.73151e-102
1.13709e-101
-4.73307e-101
1.96991e-100
-8.19791e-100
3.41126e-99
-1.41932e-98
5.90471e-98
-2.45623e-97
1.02163e-96
-4.2488e-96
1.76682e-95
-7.34626e-95
3.05415e-94
-1.26959e-93
5.27698e-93
-2.19308e-92
9.11319e-92
-3.78645e-91
1.57304e-90
-6.5342e-90
2.71387e-89
-1.12701e-88
4.67962e-88
-1.94283e-87
8.0649e-87
-3.34737e-86
1.38915e-85
-5.7641e-85
2.3914e-84
-9.91995e-84
4.11437e-83
-1.70621e-82
7.07447e-82
-2.93285e-81
1.21567e-80
-5.0382e-80
2.08768e-79
-8.64934e-79
3.58285e-78
-1.48389e-77
6.14471e-77
-2.54405e-76
1.05311e-75
-4.35855e-75
1.80357e-74
-7.46182e-74
3.08656e-73
-1.2765e-72
5.27818e-72
-2.18204e-71
9.01889e-71
-3.72697e-70
1.53982e-69
-6.3605e-69
2.62676e-68
-1.08457e-67
4.47709e-67
-1.84773e-66
7.62395e-66
-3.14501e-65
1.29706e-64
-5.34804e-64
2.20456e-63
-9.08535e-63
3.74326e-62
-1.54186e-61
6.34933e-61
-2.61392e-60
1.07581e-59
-4.42651e-59
1.8208e-58
-7.48747e-58
3.07808e-57
-1.26501e-56
5.19724e-56
-2.13459e-55
8.76432e-55
-3.59732e-54
1.47602e-53
-6.05423e-53
2.48241e-52
-1.01749e-51
4.16899e-51
-1.70753e-50
6.99099e-50
-2.86115e-49
1.17049e-48
-4.78649e-48
1.95652e-47
-7.99401e-47
3.26478e-46
-1.33275e-45
5.43803e-45
-2.21783e-44
9.04076e-44
-3.68353e-43
1.50004e-42
-6.10536e-42
2.48363e-41
-1.00976e-40
4.10305e-40
-1.66625e-39
6.76255e-39
-2.74291e-38
1.11182e-37
-4.50376e-37
1.82314e-36
-7.37499e-36
2.9812e-35
-1.2042e-34
4.86039e-34
-1.96021e-33
7.89908e-33
-3.18041e-32
1.27941e-31
-5.14216e-31
2.06477e-30
-8.2828e-30
3.31928e-29
-1.32879e-28
5.31371e-28
-2.12251e-27
8.46818e-27
-3.37443e-26
1.34294e-25
-5.33751e-25
2.11845e-24
-8.39597e-24
3.32251e-23
-1.31273e-22
5.17801e-22
-2.0389e-21
8.01377e-21
-3.14372e-20
1.23076e-19
-4.80817e-19
1.87417e-18
-7.28796e-18
2.8269e-17
-1.09359e-16
4.21862e-16
-1.62246e-15
6.21981e-15
-2.37622e-14
9.04468e-14
-3.42909e-13
1.29453e-12
-4.86452e-12
1.81886e-11
-6.76392e-11
2.50048e-10
-9.18389e-10
3.34908e-09
-1.21168e-08
4.34545e-08
-1.54315e-07
5.41964e-07
-1.87963e-06
6.42573e-06
-2.16044e-05
7.12361e-05
-0.00022952
0.000719169
-0.00217736
0.0063124
-0.0172925
0.0438421
-0.0992662
0.18695
-0.242375
0.0438421
0.473167
0.759384
0.902492
0.963627
0.987232
0.995721
0.998618
0.999567
0.999867
0.99996
0.999988
0.999997
0.999999
1
1
1
1
1
1
1
1
1
1
1
1
1
1
1
1
1
1
1
1
1
1
1
1
1
1
1
1
1
1
1
1
1
1
1
1
1
1
1
1
1
1
1
1
1
1
1
1
1
1
1
1
1
1
1
1
1
1
1
1
1
1
1
1
1
1
1
1
1
1
1
1
0.999999
1
0.999994
1.00002
0.999929
1.00023
0.999281
1.00218
0.993688
1.01729
0.956158
1.09927
0.81305
1.24237
0.956158
0.526833
0.240616
0.0975078
0.0363732
0.0127683
0.00427854
0.00138201
0.000433325
0.000132568
3.9728e-05
1.16979e-05
3.39255e-06
9.70957e-07
2.74678e-07
7.69081e-08
2.13368e-08
5.87086e-09
1.60339e-09
4.34953e-10
1.17266e-10
3.14377e-11
8.38463e-12
2.22559e-12
5.8815e-13
1.54794e-13
4.05853e-14
1.06033e-14
2.76105e-15
7.16735e-16
1.85514e-16
4.78854e-17
1.23284e-17
3.16632e-18
8.11336e-19
2.07443e-19
5.29296e-20
1.34786e-20
3.42596e-21
8.69252e-22
2.20178e-22
5.56801e-23
1.40591e-23
3.54463e-24
8.92427e-25
2.24381e-25
5.63426e-26
1.41301e-26
3.53946e-27
8.85579e-28
2.21329e-28
5.52569e-29
1.37813e-29
3.43371e-30
8.54718e-31
2.1256e-31
5.28148e-32
1.31116e-32
3.25234e-33
8.06095e-34
1.99636e-34
4.94042e-35
1.22172e-35
3.01906e-36
7.45545e-37
1.83987e-37
4.53751e-38
1.11835e-38
2.75467e-39
6.78118e-40
1.66836e-40
4.10233e-41
1.00817e-41
2.47632e-42
6.07931e-43
1.4917e-43
3.65845e-44
8.96816e-45
2.19739e-45
5.3816e-46
1.31742e-46
3.22364e-47
7.88469e-48
1.92772e-48
4.71115e-49
1.1509e-49
2.81048e-50
6.86057e-51
1.67409e-51
4.08357e-52
9.95746e-53
2.4272e-53
5.91448e-54
1.44073e-54
3.50839e-55
8.54073e-56
2.07848e-56
5.05668e-57
1.22986e-57
2.99031e-58
7.26863e-59
1.76631e-59
4.29101e-60
1.04216e-60
2.53044e-61
6.14245e-62
1.49065e-62
3.61661e-63
8.77242e-64
2.12731e-64
5.15751e-65
1.25011e-65
3.02938e-66
7.33942e-67
1.77776e-67
4.30516e-68
1.04235e-68
2.52315e-69
6.10639e-70
1.47753e-70
3.57438e-71
8.6453e-72
2.09061e-72
5.05458e-73
1.22184e-73
2.95299e-74
7.1356e-75
1.72394e-75
4.16423e-76
1.00571e-76
2.42848e-77
5.86307e-78
1.41528e-78
3.41576e-79
8.24258e-80
1.9887e-80
4.79741e-81
1.15712e-81
2.79049e-82
6.72852e-83
1.62216e-83
3.91024e-84
9.42435e-85
2.27111e-85
5.4722e-86
1.31834e-86
3.17564e-87
7.64853e-88
1.8419e-88
4.43505e-89
1.06776e-89
2.57035e-90
6.18668e-91
1.48891e-91
3.58282e-92
8.62045e-93
2.07387e-93
4.98865e-94
1.19987e-94
2.88557e-95
6.93877e-96
1.66834e-96
4.01085e-97
9.64142e-98
2.31739e-98
5.56942e-99
1.33837e-99
3.21584e-100
7.72625e-101
1.85609e-101
4.45845e-102
1.07084e-102
2.57173e-103
6.17565e-104
1.48285e-104
3.56017e-105
8.54679e-106
2.05161e-106
4.92432e-107
1.18184e-107
2.83616e-108
6.80556e-109
1.6329e-109
3.91756e-110
9.398e-111
2.25433e-111
5.40708e-112
1.2968e-112
3.10989e-113
7.45731e-114
1.78807e-114
4.28698e-115
1.02774e-115
2.46367e-116
5.90535e-117
1.41539e-117
3.39214e-118
8.12903e-119
1.94792e-119
4.66736e-120
1.11825e-120
2.67902e-121
6.41772e-122
1.53729e-122
3.68212e-123
8.81884e-124
2.112e-124
5.05764e-125
1.21108e-125
2.89979e-126
6.94275e-127
1.66214e-127
3.97902e-128
9.52482e-129
2.27987e-129
5.45675e-130
1.30596e-130
3.12537e-131
7.47902e-132
1.78962e-132
4.28205e-133
1.02451e-133
2.45106e-134
5.86362e-135
1.40266e-135
3.35517e-136
8.02511e-137
1.91939e-137
4.59039e-138
1.09777e-138
2.62513e-139
6.2772e-140
1.50092e-140
3.58859e-141
8.57961e-142
2.05111e-142
4.90327e-143
1.17209e-143
2.80165e-144
6.69643e-145
1.60048e-145
3.82504e-146
9.14113e-147
2.18445e-147
5.21991e-148
1.24727e-148
2.98016e-149
7.12028e-150
1.70111e-150
4.06395e-151
9.70831e-152
2.31909e-152
5.53953e-153
1.32315e-153
3.16026e-154
7.54774e-155
1.80257e-155
4.30475e-156
1.02798e-156
2.45472e-157
5.8614e-158
1.39953e-158
3.34151e-159
7.97783e-160
1.90462e-160
4.54689e-161
1.08543e-161
2.59103e-162
6.18478e-163
1.47625e-163
3.52351e-164
8.40958e-165
2.00704e-165
4.78984e-166
1.14306e-166
2.72771e-167
6.50897e-168
1.55314e-168
3.70587e-169
8.84206e-170
2.1096e-170
5.03306e-171
1.20074e-171
2.86448e-172
6.83328e-173
1.63003e-173
3.8882e-174
9.27437e-175
2.2121e-175
5.27607e-176
1.25835e-176
3.00106e-177
7.15706e-178
1.70679e-178
4.07014e-179
9.70564e-180
2.31433e-180
5.51837e-181
1.31578e-181
3.13718e-182
7.47966e-183
1.78324e-183
4.25133e-184
1.0135e-184
2.41608e-185
5.7595e-186
1.37291e-186
3.27257e-187
7.80047e-188
1.85926e-188
4.43143e-189
1.05618e-189
2.51718e-190
5.99901e-191
1.42966e-191
3.407e-192
8.11892e-193
1.93469e-193
4.61013e-194
1.0985e-194
2.61744e-195
6.23649e-196
1.48591e-196
3.54022e-197
8.43444e-198
2.00942e-198
4.7871e-199
1.14041e-199
2.71669e-200
6.47153e-201
1.54156e-201
3.67201e-202
8.74651e-203
2.08331e-203
4.96206e-204
1.18184e-204
2.81477e-205
6.70374e-206
1.59654e-206
3.80216e-207
9.05463e-208
2.15625e-208
5.13473e-209
1.22271e-209
2.91153e-210
6.93276e-211
1.65075e-211
3.93047e-212
9.35832e-213
2.22813e-213
5.30485e-214
1.26297e-214
3.00681e-215
7.15825e-216
1.70411e-216
4.05675e-217
9.65714e-218
2.29884e-218
5.47216e-219
1.30256e-219
3.10048e-220
7.37989e-221
1.75655e-221
4.18082e-222
9.95067e-223
2.36828e-223
5.63645e-224
1.34143e-224
3.19242e-225
7.59738e-226
1.808e-226
4.30251e-227
1.02385e-227
2.43637e-228
5.79749e-229
1.37952e-229
3.28251e-230
7.81043e-231
1.85838e-231
4.42168e-232
1.05203e-232
2.50301e-233
5.95508e-234
1.41678e-234
3.37063e-235
8.0188e-236
1.90765e-236
4.53817e-237
1.07958e-237
2.56813e-238
6.10904e-239
1.45318e-239
3.45668e-240
8.22223e-241
1.95574e-241
4.65185e-242
1.10645e-242
2.63166e-243
6.2592e-244
1.48868e-244
3.54057e-245
8.42051e-246
2.00261e-246
4.76261e-247
1.13263e-247
2.69352e-248
6.4054e-249
1.52322e-249
3.62221e-250
8.61344e-251
2.0482e-251
4.87033e-252
1.15808e-252
2.75366e-253
6.54749e-254
1.5568e-254
3.70153e-255
8.80083e-256
2.09247e-256
4.97492e-257
1.18279e-257
2.81202e-258
6.68535e-259
1.58936e-259
3.77845e-260
8.98252e-261
2.13538e-261
5.07627e-262
1.20672e-262
2.86856e-263
6.81887e-264
1.62089e-264
3.85291e-265
9.15835e-266
2.1769e-266
5.17432e-267
1.22987e-267
2.92322e-268
6.94794e-269
1.65137e-269
3.92486e-270
9.32821e-271
2.217e-271
5.26898e-272
1.25222e-272
2.97597e-273
7.07265e-274
1.67997e-274
4.02726e-275
8.10252e-276
)
;

boundaryField
{
    sides
    {
        type            inletOutlet;
        inletValue      uniform 0;
        value           nonuniform List<scalar> 2(8.10252e-276 0);
    }
    empty
    {
        type            empty;
    }
}


// ************************************************************************* //
