/*--------------------------------*- C++ -*----------------------------------*\
| =========                 |                                                 |
| \\      /  F ield         | OpenFOAM: The Open Source CFD Toolbox           |
|  \\    /   O peration     | Version:  v2012                                 |
|   \\  /    A nd           | Website:  www.openfoam.com                      |
|    \\/     M anipulation  |                                                 |
\*---------------------------------------------------------------------------*/
FoamFile
{
    version     2.0;
    format      ascii;
    class       volScalarField;
    location    "0.003";
    object      mag(U);
}
// * * * * * * * * * * * * * * * * * * * * * * * * * * * * * * * * * * * * * //

dimensions      [0 1 -1 0 0 0 0];


internalField   nonuniform List<scalar> 
100
(
4.19823e-12
5.80575e-12
4.84882e-12
4.21573e-12
2.85328e-12
3.19899e-12
6.79768e-13
2.1881e-14
2.73658e-12
9.8756e-13
3.57389e-13
2.14142e-12
6.33089e-13
6.94355e-13
7.2353e-13
3.87439e-12
2.16782e-11
1.35675e-10
8.36866e-10
4.88246e-09
2.82061e-08
1.52841e-07
8.19551e-07
4.09222e-06
2.02058e-05
9.21557e-05
0.000414713
0.0017086
0.00691005
0.0253474
0.0902938
0.28904
0.879281
2.37624
5.84223
12.3012
23.2978
37.1701
57.5994
78.7754
102.727
122.796
149.028
173.549
198.02
221.153
243.055
263.942
283.431
301.348
317.817
332.348
343.921
352.848
358.151
360.9
363.344
363.805
358.617
344.102
331.66
326.76
317.276
303.883
295.173
294.981
296.437
293.93
280.653
233.638
118.672
24.3656
3.70072
0.506428
0.0666891
0.0086062
0.00108678
0.000135161
1.63688e-05
1.96629e-06
4.89287e-07
4.1351e-08
1.24218e-08
1.30263e-09
3.00465e-10
3.55501e-11
6.39287e-12
9.82794e-13
6.71942e-13
5.65185e-14
8.69757e-13
1.06757e-13
6.27983e-15
1.03931e-12
8.98324e-27
4.11329e-13
7.473e-13
5.84025e-13
8.35218e-13
6.81362e-13
)
;

boundaryField
{
    sides
    {
        type            calculated;
        value           nonuniform List<scalar> 2(6.81362e-13 4.19823e-12);
    }
    empty
    {
        type            empty;
    }
}


// ************************************************************************* //
