/*--------------------------------*- C++ -*----------------------------------*\
| =========                 |                                                 |
| \\      /  F ield         | OpenFOAM: The Open Source CFD Toolbox           |
|  \\    /   O peration     | Version:  v2012                                 |
|   \\  /    A nd           | Website:  www.openfoam.com                      |
|    \\/     M anipulation  |                                                 |
\*---------------------------------------------------------------------------*/
FoamFile
{
    version     2.0;
    format      ascii;
    class       volScalarField;
    location    "0.003";
    object      p;
}
// * * * * * * * * * * * * * * * * * * * * * * * * * * * * * * * * * * * * * //

dimensions      [1 -1 -2 0 0 0 0];


internalField   nonuniform List<scalar> 
100
(
100000
100000
100000
100000
100000
100000
100000
100000
100000
100000
100000
100000
100000
100000
100000
100000
100000
100000
100000
100000
100000
100000
100000
100000
100000
100000
99999.9
99999.4
99997.6
99990.9
99968.3
99895.2
99686.4
99130.9
97859.5
95394
91606.5
86207
80383.2
73828.4
66395.8
62561.2
58209.3
54373.4
50794.4
47385.3
44182.6
41220.4
38595.2
36226.7
34166.4
32457.5
30995.1
30110.6
29496.6
29495.3
29536.3
29700.4
30108.5
30883.5
32522.8
32976.8
32940
32700.5
32746.7
32568.1
32125.6
31144.9
29480.3
26043.1
14839.7
10939.8
10140.4
10019
10002.5
10000.3
10000
10000
10000
10000
10000
10000
10000
10000
10000
10000
10000
10000
10000
10000
10000
10000
10000
10000
10000
10000
10000
10000
10000
10000
)
;

boundaryField
{
    sides
    {
        type            zeroGradient;
    }
    empty
    {
        type            empty;
    }
}


// ************************************************************************* //
