/*--------------------------------*- C++ -*----------------------------------*\
| =========                 |                                                 |
| \\      /  F ield         | OpenFOAM: The Open Source CFD Toolbox           |
|  \\    /   O peration     | Version:  v2012                                 |
|   \\  /    A nd           | Website:  www.openfoam.com                      |
|    \\/     M anipulation  |                                                 |
\*---------------------------------------------------------------------------*/
FoamFile
{
    version     2.0;
    format      ascii;
    class       surfaceScalarField;
    location    "0.003";
    object      phi;
}
// * * * * * * * * * * * * * * * * * * * * * * * * * * * * * * * * * * * * * //

dimensions      [1 0 -1 0 0 0 0];
oriented        oriented;


internalField   nonuniform List<scalar> 
99
(
1.8801e-11
2.27516e-11
1.69891e-11
1.36353e-11
1.29319e-11
7.44649e-12
1.47082e-12
-6.25988e-12
-6.38778e-12
-1.95399e-12
-2.77822e-12
-6.1533e-12
-3.04823e-12
-4.26326e-14
7.81597e-12
4.16307e-11
2.5841e-10
1.60216e-09
9.49935e-09
5.51372e-08
3.04456e-07
1.64054e-06
8.37102e-06
4.15463e-05
0.0001943
0.000879528
0.00373101
0.0152047
0.0577088
0.207984
0.692988
2.15321
6.11727
15.7435
36.0522
70.7073
118.34
176.404
241.147
292.212
277.199
288.482
311.242
337.057
360.986
380.997
392.64
401.165
411.154
416.155
415.219
411.06
410.305
414.254
414.982
413.456
410.709
400.592
363.006
303.048
255.137
221.647
209.611
210.498
255.038
293.138
308.16
305.851
275.468
162.581
35.9535
6.13785
0.862242
0.115137
0.0150393
0.00192926
0.000242467
2.99573e-05
3.6131e-06
3.45992e-07
4.66362e-08
5.68923e-09
1.22143e-09
1.58211e-10
3.00902e-11
4.01901e-12
6.62137e-13
1.57208e-13
7.14984e-14
-8.26006e-14
-1.28342e-13
-7.99361e-15
1.09246e-13
1.28786e-13
-4.35207e-14
-1.44773e-13
-1.5099e-14
1.48326e-13
1.93623e-13
)
;

boundaryField
{
    sides
    {
        type            calculated;
        value           nonuniform List<scalar> 2(1.57888e-13 -1.67696e-11);
    }
    empty
    {
        type            empty;
        value           nonuniform List<scalar> 0();
    }
}


// ************************************************************************* //
