/*--------------------------------*- C++ -*----------------------------------*\
| =========                 |                                                 |
| \\      /  F ield         | OpenFOAM: The Open Source CFD Toolbox           |
|  \\    /   O peration     | Version:  v2012                                 |
|   \\  /    A nd           | Website:  www.openfoam.com                      |
|    \\/     M anipulation  |                                                 |
\*---------------------------------------------------------------------------*/
FoamFile
{
    version     2.0;
    format      ascii;
    class       volScalarField;
    location    "0.003";
    object      T;
}
// * * * * * * * * * * * * * * * * * * * * * * * * * * * * * * * * * * * * * //

dimensions      [0 0 0 1 0 0 0];


internalField   nonuniform List<scalar> 
100
(
348.432
348.432
348.432
348.432
348.432
348.432
348.432
348.432
348.432
348.432
348.432
348.432
348.432
348.432
348.432
348.432
348.432
348.432
348.432
348.432
348.432
348.432
348.432
348.432
348.432
348.432
348.432
348.431
348.43
348.423
348.4
348.327
348.119
347.563
346.285
343.782
339.845
334.032
328.008
312.483
362.403
413.745
422.923
420.481
415.204
403.135
395.904
391.948
383.125
372.55
368.01
367.306
365.738
360.004
354.435
353.437
353.928
357.468
379.25
435.506
536.784
645.081
703.174
700.871
613.751
501.407
445.111
417.497
400.337
382.755
318.992
286.519
279.874
278.898
278.766
278.749
278.746
278.746
278.746
278.746
600
600
600
600
600
600
600
600
600
600
600
600
600
600
600
600
600
600
600
600
)
;

boundaryField
{
    sides
    {
        type            zeroGradient;
    }
    empty
    {
        type            empty;
    }
}


// ************************************************************************* //
