/*--------------------------------*- C++ -*----------------------------------*\
| =========                 |                                                 |
| \\      /  F ield         | OpenFOAM: The Open Source CFD Toolbox           |
|  \\    /   O peration     | Version:  v2012                                 |
|   \\  /    A nd           | Website:  www.openfoam.com                      |
|    \\/     M anipulation  |                                                 |
\*---------------------------------------------------------------------------*/
FoamFile
{
    version     2.0;
    format      ascii;
    class       volVectorField;
    location    "0.003";
    object      U;
}
// * * * * * * * * * * * * * * * * * * * * * * * * * * * * * * * * * * * * * //

dimensions      [0 1 -1 0 0 0 0];


internalField   nonuniform List<vector> 
100
(
(4.19823e-12 0 0)
(5.80575e-12 0 0)
(4.84882e-12 0 0)
(4.21573e-12 0 0)
(2.85328e-12 0 0)
(3.19899e-12 0 0)
(6.79768e-13 0 0)
(-2.1881e-14 0 0)
(-2.73658e-12 0 0)
(-9.8756e-13 0 0)
(3.57389e-13 0 0)
(-2.14142e-12 0 0)
(-6.33089e-13 0 0)
(-6.94355e-13 0 0)
(7.2353e-13 0 0)
(3.87439e-12 0 0)
(2.16782e-11 0 0)
(1.35675e-10 0 0)
(8.36866e-10 0 0)
(4.88246e-09 0 0)
(2.82061e-08 0 0)
(1.52841e-07 0 0)
(8.19551e-07 0 0)
(4.09222e-06 0 0)
(2.02058e-05 0 0)
(9.21557e-05 0 0)
(0.000414713 0 0)
(0.0017086 0 0)
(0.00691005 0 0)
(0.0253474 0 0)
(0.0902938 0 0)
(0.28904 0 0)
(0.879281 0 0)
(2.37624 0 0)
(5.84223 0 0)
(12.3012 0 0)
(23.2978 0 0)
(37.1701 0 0)
(57.5994 0 0)
(78.7754 0 0)
(102.727 0 0)
(122.796 0 0)
(149.028 0 0)
(173.549 0 0)
(198.02 0 0)
(221.153 0 0)
(243.055 0 0)
(263.942 0 0)
(283.431 0 0)
(301.348 0 0)
(317.817 0 0)
(332.348 0 0)
(343.921 0 0)
(352.848 0 0)
(358.151 0 0)
(360.9 0 0)
(363.344 0 0)
(363.805 0 0)
(358.617 0 0)
(344.102 0 0)
(331.66 0 0)
(326.76 0 0)
(317.276 0 0)
(303.883 0 0)
(295.173 0 0)
(294.981 0 0)
(296.437 0 0)
(293.93 0 0)
(280.653 0 0)
(233.638 0 0)
(118.672 0 0)
(24.3656 0 0)
(3.70072 0 0)
(0.506428 0 0)
(0.0666891 0 0)
(0.0086062 0 0)
(0.00108678 0 0)
(0.000135161 0 0)
(1.63688e-05 0 0)
(1.96629e-06 0 0)
(4.89287e-07 0 0)
(4.1351e-08 0 0)
(1.24218e-08 0 0)
(1.30263e-09 0 0)
(3.00465e-10 0 0)
(3.55501e-11 0 0)
(6.39287e-12 0 0)
(9.82794e-13 0 0)
(6.71942e-13 0 0)
(5.65185e-14 0 0)
(-8.69757e-13 0 0)
(-1.06757e-13 0 0)
(6.27983e-15 0 0)
(1.03931e-12 0 0)
(8.98324e-27 0 0)
(-4.11329e-13 0 0)
(-7.473e-13 0 0)
(5.84025e-13 0 0)
(8.35218e-13 0 0)
(6.81362e-13 0 0)
)
;

boundaryField
{
    sides
    {
        type            zeroGradient;
    }
    empty
    {
        type            empty;
    }
}


// ************************************************************************* //
