-4.995 	348.432 	9.23814e-12 	100000
-4.994 	348.432 	9.23814e-12 	100000
-4.993 	348.432 	9.23814e-12 	100000
-4.992 	348.432 	9.23814e-12 	100000
-4.991 	348.432 	9.23814e-12 	100000
-4.99 	348.432 	9.23814e-12 	100000
-4.98901 	348.432 	9.23814e-12 	100000
-4.98801 	348.432 	9.23814e-12 	100000
-4.98701 	348.432 	9.23814e-12 	100000
-4.98601 	348.432 	9.23814e-12 	100000
-4.98501 	348.432 	9.23814e-12 	100000
-4.98401 	348.432 	9.23814e-12 	100000
-4.98301 	348.432 	9.23814e-12 	100000
-4.98201 	348.432 	9.23814e-12 	100000
-4.98101 	348.432 	9.23814e-12 	100000
-4.98001 	348.432 	9.23814e-12 	100000
-4.97901 	348.432 	9.23814e-12 	100000
-4.97802 	348.432 	9.23814e-12 	100000
-4.97702 	348.432 	9.23814e-12 	100000
-4.97602 	348.432 	9.23814e-12 	100000
-4.97502 	348.432 	9.23814e-12 	100000
-4.97402 	348.432 	9.23814e-12 	100000
-4.97302 	348.432 	9.23814e-12 	100000
-4.97202 	348.432 	9.23814e-12 	100000
-4.97102 	348.432 	9.23814e-12 	100000
-4.97002 	348.432 	9.23814e-12 	100000
-4.96902 	348.432 	9.23814e-12 	100000
-4.96802 	348.432 	9.23814e-12 	100000
-4.96703 	348.432 	9.23814e-12 	100000
-4.96603 	348.432 	9.23814e-12 	100000
-4.96503 	348.432 	9.23814e-12 	100000
-4.96403 	348.432 	9.23814e-12 	100000
-4.96303 	348.432 	9.23814e-12 	100000
-4.96203 	348.432 	9.23814e-12 	100000
-4.96103 	348.432 	9.23814e-12 	100000
-4.96003 	348.432 	9.23814e-12 	100000
-4.95903 	348.432 	9.23814e-12 	100000
-4.95803 	348.432 	9.23814e-12 	100000
-4.95703 	348.432 	9.23814e-12 	100000
-4.95604 	348.432 	9.23814e-12 	100000
-4.95504 	348.432 	9.23814e-12 	100000
-4.95404 	348.432 	9.23814e-12 	100000
-4.95304 	348.432 	9.23814e-12 	100000
-4.95204 	348.432 	9.23814e-12 	100000
-4.95104 	348.432 	9.23814e-12 	100000
-4.95004 	348.432 	9.23814e-12 	100000
-4.94904 	348.432 	9.45856e-12 	100000
-4.94804 	348.432 	9.68829e-12 	100000
-4.94704 	348.432 	9.91802e-12 	100000
-4.94604 	348.432 	1.01478e-11 	100000
-4.94505 	348.432 	1.03775e-11 	100000
-4.94405 	348.432 	1.06072e-11 	100000
-4.94305 	348.432 	1.0837e-11 	100000
-4.94205 	348.432 	1.10667e-11 	100000
-4.94105 	348.432 	1.12964e-11 	100000
-4.94005 	348.432 	1.15262e-11 	100000
-4.93905 	348.432 	1.17559e-11 	100000
-4.93805 	348.432 	1.19856e-11 	100000
-4.93705 	348.432 	1.22154e-11 	100000
-4.93605 	348.432 	1.24451e-11 	100000
-4.93505 	348.432 	1.26748e-11 	100000
-4.93405 	348.432 	1.29045e-11 	100000
-4.93306 	348.432 	1.31343e-11 	100000
-4.93206 	348.432 	1.3364e-11 	100000
-4.93106 	348.432 	1.35937e-11 	100000
-4.93006 	348.432 	1.38235e-11 	100000
-4.92906 	348.432 	1.40532e-11 	100000
-4.92806 	348.432 	1.42829e-11 	100000
-4.92706 	348.432 	1.45127e-11 	100000
-4.92606 	348.432 	1.47424e-11 	100000
-4.92506 	348.432 	1.49721e-11 	100000
-4.92406 	348.432 	1.52019e-11 	100000
-4.92306 	348.432 	1.54316e-11 	100000
-4.92207 	348.432 	1.56613e-11 	100000
-4.92107 	348.432 	1.58911e-11 	100000
-4.92007 	348.432 	1.61208e-11 	100000
-4.91907 	348.432 	1.63505e-11 	100000
-4.91807 	348.432 	1.65803e-11 	100000
-4.91707 	348.432 	1.681e-11 	100000
-4.91607 	348.432 	1.70397e-11 	100000
-4.91507 	348.432 	1.72695e-11 	100000
-4.91407 	348.432 	1.74992e-11 	100000
-4.91307 	348.432 	1.77289e-11 	100000
-4.91207 	348.432 	1.79587e-11 	100000
-4.91108 	348.432 	1.81884e-11 	100000
-4.91008 	348.432 	1.84181e-11 	100000
-4.90908 	348.432 	1.86479e-11 	100000
-4.90808 	348.432 	1.88776e-11 	100000
-4.90708 	348.432 	1.91073e-11 	100000
-4.90608 	348.432 	1.93371e-11 	100000
-4.90508 	348.432 	1.95668e-11 	100000
-4.90408 	348.432 	1.97965e-11 	100000
-4.90308 	348.432 	2.00263e-11 	100000
-4.90208 	348.432 	2.0256e-11 	100000
-4.90108 	348.432 	2.04857e-11 	100000
-4.90009 	348.432 	2.07155e-11 	100000
-4.89909 	348.432 	2.09452e-11 	100000
-4.89809 	348.432 	2.11749e-11 	100000
-4.89709 	348.432 	2.14047e-11 	100000
-4.89609 	348.432 	2.16344e-11 	100000
-4.89509 	348.432 	2.18641e-11 	100000
-4.89409 	348.432 	2.20939e-11 	100000
-4.89309 	348.432 	2.23236e-11 	100000
-4.89209 	348.432 	2.25533e-11 	100000
-4.89109 	348.432 	2.27831e-11 	100000
-4.89009 	348.432 	2.30128e-11 	100000
-4.8891 	348.432 	2.32425e-11 	100000
-4.8881 	348.432 	2.34722e-11 	100000
-4.8871 	348.432 	2.3702e-11 	100000
-4.8861 	348.432 	2.39317e-11 	100000
-4.8851 	348.432 	2.41614e-11 	100000
-4.8841 	348.432 	2.43912e-11 	100000
-4.8831 	348.432 	2.46209e-11 	100000
-4.8821 	348.432 	2.48506e-11 	100000
-4.8811 	348.432 	2.50804e-11 	100000
-4.8801 	348.432 	2.53101e-11 	100000
-4.8791 	348.432 	2.55398e-11 	100000
-4.87811 	348.432 	2.57696e-11 	100000
-4.87711 	348.432 	2.59993e-11 	100000
-4.87611 	348.432 	2.6229e-11 	100000
-4.87511 	348.432 	2.64588e-11 	100000
-4.87411 	348.432 	2.66885e-11 	100000
-4.87311 	348.432 	2.69182e-11 	100000
-4.87211 	348.432 	2.7148e-11 	100000
-4.87111 	348.432 	2.73777e-11 	100000
-4.87011 	348.432 	2.76074e-11 	100000
-4.86911 	348.432 	2.78372e-11 	100000
-4.86811 	348.432 	2.80669e-11 	100000
-4.86712 	348.432 	2.82966e-11 	100000
-4.86612 	348.432 	2.85264e-11 	100000
-4.86512 	348.432 	2.87561e-11 	100000
-4.86412 	348.432 	2.89858e-11 	100000
-4.86312 	348.432 	2.92156e-11 	100000
-4.86212 	348.432 	2.94453e-11 	100000
-4.86112 	348.432 	2.9675e-11 	100000
-4.86012 	348.432 	2.99048e-11 	100000
-4.85912 	348.432 	3.01345e-11 	100000
-4.85812 	348.432 	3.03642e-11 	100000
-4.85712 	348.432 	3.0594e-11 	100000
-4.85613 	348.432 	3.08237e-11 	100000
-4.85513 	348.432 	3.10534e-11 	100000
-4.85413 	348.432 	3.12832e-11 	100000
-4.85313 	348.432 	3.15129e-11 	100000
-4.85213 	348.432 	3.17426e-11 	100000
-4.85113 	348.432 	3.19724e-11 	100000
-4.85013 	348.432 	3.22021e-11 	100000
-4.84913 	348.432 	3.30221e-11 	100000
-4.84813 	348.432 	3.39308e-11 	100000
-4.84713 	348.432 	3.48395e-11 	100000
-4.84613 	348.432 	3.57482e-11 	100000
-4.84514 	348.432 	3.66569e-11 	100000
-4.84414 	348.432 	3.75656e-11 	100000
-4.84314 	348.432 	3.84743e-11 	100000
-4.84214 	348.432 	3.9383e-11 	100000
-4.84114 	348.432 	4.02917e-11 	100000
-4.84014 	348.432 	4.12004e-11 	100000
-4.83914 	348.432 	4.21091e-11 	100000
-4.83814 	348.432 	4.30178e-11 	100000
-4.83714 	348.432 	4.39265e-11 	100000
-4.83614 	348.432 	4.48352e-11 	100000
-4.83514 	348.432 	4.57439e-11 	100000
-4.83414 	348.432 	4.66526e-11 	100000
-4.83315 	348.432 	4.75613e-11 	100000
-4.83215 	348.432 	4.847e-11 	100000
-4.83115 	348.432 	4.93787e-11 	100000
-4.83015 	348.432 	5.02874e-11 	100000
-4.82915 	348.432 	5.11961e-11 	100000
-4.82815 	348.432 	5.21048e-11 	100000
-4.82715 	348.432 	5.30135e-11 	100000
-4.82615 	348.432 	5.39222e-11 	100000
-4.82515 	348.432 	5.48309e-11 	100000
-4.82415 	348.432 	5.57396e-11 	100000
-4.82315 	348.432 	5.66483e-11 	100000
-4.82216 	348.432 	5.7557e-11 	100000
-4.82116 	348.432 	5.84657e-11 	100000
-4.82016 	348.432 	5.93744e-11 	100000
-4.81916 	348.432 	6.02831e-11 	100000
-4.81816 	348.432 	6.11918e-11 	100000
-4.81716 	348.432 	6.21005e-11 	100000
-4.81616 	348.432 	6.30092e-11 	100000
-4.81516 	348.432 	6.39179e-11 	100000
-4.81416 	348.432 	6.48266e-11 	100000
-4.81316 	348.432 	6.57353e-11 	100000
-4.81216 	348.432 	6.6644e-11 	100000
-4.81117 	348.432 	6.75527e-11 	100000
-4.81017 	348.432 	6.84614e-11 	100000
-4.80917 	348.432 	6.93701e-11 	100000
-4.80817 	348.432 	7.02788e-11 	100000
-4.80717 	348.432 	7.11875e-11 	100000
-4.80617 	348.432 	7.20962e-11 	100000
-4.80517 	348.432 	7.30049e-11 	100000
-4.80417 	348.432 	7.39136e-11 	100000
-4.80317 	348.432 	7.48223e-11 	100000
-4.80217 	348.432 	7.5731e-11 	100000
-4.80117 	348.432 	7.66397e-11 	100000
-4.80018 	348.432 	7.75484e-11 	100000
-4.79918 	348.432 	7.84571e-11 	100000
-4.79818 	348.432 	7.93658e-11 	100000
-4.79718 	348.432 	8.02745e-11 	100000
-4.79618 	348.432 	8.11832e-11 	100000
-4.79518 	348.432 	8.20919e-11 	100000
-4.79418 	348.432 	8.30006e-11 	100000
-4.79318 	348.432 	8.39093e-11 	100000
-4.79218 	348.432 	8.4818e-11 	100000
-4.79118 	348.432 	8.57267e-11 	100000
-4.79018 	348.432 	8.66354e-11 	100000
-4.78919 	348.432 	8.75441e-11 	100000
-4.78819 	348.432 	8.84528e-11 	100000
-4.78719 	348.432 	8.93615e-11 	100000
-4.78619 	348.432 	9.02702e-11 	100000
-4.78519 	348.432 	9.11789e-11 	100000
-4.78419 	348.432 	9.20876e-11 	100000
-4.78319 	348.432 	9.29963e-11 	100000
-4.78219 	348.432 	9.3905e-11 	100000
-4.78119 	348.432 	9.48137e-11 	100000
-4.78019 	348.432 	9.57224e-11 	100000
-4.77919 	348.432 	9.66311e-11 	100000
-4.7782 	348.432 	9.75398e-11 	100000
-4.7772 	348.432 	9.84485e-11 	100000
-4.7762 	348.432 	9.93572e-11 	100000
-4.7752 	348.432 	1.00266e-10 	100000
-4.7742 	348.432 	1.01175e-10 	100000
-4.7732 	348.432 	1.02083e-10 	100000
-4.7722 	348.432 	1.02992e-10 	100000
-4.7712 	348.432 	1.03901e-10 	100000
-4.7702 	348.432 	1.04809e-10 	100000
-4.7692 	348.432 	1.05718e-10 	100000
-4.7682 	348.432 	1.06627e-10 	100000
-4.76721 	348.432 	1.07536e-10 	100000
-4.76621 	348.432 	1.08444e-10 	100000
-4.76521 	348.432 	1.09353e-10 	100000
-4.76421 	348.432 	1.10262e-10 	100000
-4.76321 	348.432 	1.1117e-10 	100000
-4.76221 	348.432 	1.12079e-10 	100000
-4.76121 	348.432 	1.12988e-10 	100000
-4.76021 	348.432 	1.13896e-10 	100000
-4.75921 	348.432 	1.14805e-10 	100000
-4.75821 	348.432 	1.15714e-10 	100000
-4.75721 	348.432 	1.16623e-10 	100000
-4.75622 	348.432 	1.17531e-10 	100000
-4.75522 	348.432 	1.1844e-10 	100000
-4.75422 	348.432 	1.19349e-10 	100000
-4.75322 	348.432 	1.20257e-10 	100000
-4.75222 	348.432 	1.21166e-10 	100000
-4.75122 	348.432 	1.22075e-10 	100000
-4.75022 	348.432 	1.22983e-10 	100000
-4.74922 	348.432 	1.26262e-10 	100000
-4.74822 	348.432 	1.30213e-10 	100000
-4.74722 	348.432 	1.34163e-10 	100000
-4.74622 	348.432 	1.38114e-10 	100000
-4.74523 	348.432 	1.42064e-10 	100000
-4.74423 	348.432 	1.46014e-10 	100000
-4.74323 	348.432 	1.49965e-10 	100000
-4.74223 	348.432 	1.53915e-10 	100000
-4.74123 	348.432 	1.57866e-10 	100000
-4.74023 	348.432 	1.61816e-10 	100000
-4.73923 	348.432 	1.65766e-10 	100000
-4.73823 	348.432 	1.69717e-10 	100000
-4.73723 	348.432 	1.73667e-10 	100000
-4.73623 	348.432 	1.77618e-10 	100000
-4.73523 	348.432 	1.81568e-10 	100000
-4.73423 	348.432 	1.85518e-10 	100000
-4.73324 	348.432 	1.89469e-10 	100000
-4.73224 	348.432 	1.93419e-10 	100000
-4.73124 	348.432 	1.97369e-10 	100000
-4.73024 	348.432 	2.0132e-10 	100000
-4.72924 	348.432 	2.0527e-10 	100000
-4.72824 	348.432 	2.09221e-10 	100000
-4.72724 	348.432 	2.13171e-10 	100000
-4.72624 	348.432 	2.17121e-10 	100000
-4.72524 	348.432 	2.21072e-10 	100000
-4.72424 	348.432 	2.25022e-10 	100000
-4.72324 	348.432 	2.28973e-10 	100000
-4.72225 	348.432 	2.32923e-10 	100000
-4.72125 	348.432 	2.36873e-10 	100000
-4.72025 	348.432 	2.40824e-10 	100000
-4.71925 	348.432 	2.44774e-10 	100000
-4.71825 	348.432 	2.48725e-10 	100000
-4.71725 	348.432 	2.52675e-10 	100000
-4.71625 	348.432 	2.56625e-10 	100000
-4.71525 	348.432 	2.60576e-10 	100000
-4.71425 	348.432 	2.64526e-10 	100000
-4.71325 	348.432 	2.68477e-10 	100000
-4.71225 	348.432 	2.72427e-10 	100000
-4.71126 	348.432 	2.76377e-10 	100000
-4.71026 	348.432 	2.80328e-10 	100000
-4.70926 	348.432 	2.84278e-10 	100000
-4.70826 	348.432 	2.88228e-10 	100000
-4.70726 	348.432 	2.92179e-10 	100000
-4.70626 	348.432 	2.96129e-10 	100000
-4.70526 	348.432 	3.0008e-10 	100000
-4.70426 	348.432 	3.0403e-10 	100000
-4.70326 	348.432 	3.0798e-10 	100000
-4.70226 	348.432 	3.11931e-10 	100000
-4.70126 	348.432 	3.15881e-10 	100000
-4.70027 	348.432 	3.19832e-10 	100000
-4.69927 	348.432 	3.23782e-10 	100000
-4.69827 	348.432 	3.27732e-10 	100000
-4.69727 	348.432 	3.31683e-10 	100000
-4.69627 	348.432 	3.35633e-10 	100000
-4.69527 	348.432 	3.39584e-10 	100000
-4.69427 	348.432 	3.43534e-10 	100000
-4.69327 	348.432 	3.47484e-10 	100000
-4.69227 	348.432 	3.51435e-10 	100000
-4.69127 	348.432 	3.55385e-10 	100000
-4.69027 	348.432 	3.59336e-10 	100000
-4.68928 	348.432 	3.63286e-10 	100000
-4.68828 	348.432 	3.67236e-10 	100000
-4.68728 	348.432 	3.71187e-10 	100000
-4.68628 	348.432 	3.75137e-10 	100000
-4.68528 	348.432 	3.79087e-10 	100000
-4.68428 	348.432 	3.83038e-10 	100000
-4.68328 	348.432 	3.86988e-10 	100000
-4.68228 	348.432 	3.90939e-10 	100000
-4.68128 	348.432 	3.94889e-10 	100000
-4.68028 	348.432 	3.98839e-10 	100000
-4.67928 	348.432 	4.0279e-10 	100000
-4.67829 	348.432 	4.0674e-10 	100000
-4.67729 	348.432 	4.10691e-10 	100000
-4.67629 	348.432 	4.14641e-10 	100000
-4.67529 	348.432 	4.18591e-10 	100000
-4.67429 	348.432 	4.22542e-10 	100000
-4.67329 	348.432 	4.26492e-10 	100000
-4.67229 	348.432 	4.30443e-10 	100000
-4.67129 	348.432 	4.34393e-10 	100000
-4.67029 	348.432 	4.38343e-10 	100000
-4.66929 	348.432 	4.42294e-10 	100000
-4.66829 	348.432 	4.46244e-10 	100000
-4.6673 	348.432 	4.50195e-10 	100000
-4.6663 	348.432 	4.54145e-10 	100000
-4.6653 	348.432 	4.58095e-10 	100000
-4.6643 	348.432 	4.62046e-10 	100000
-4.6633 	348.432 	4.65996e-10 	100000
-4.6623 	348.432 	4.69946e-10 	100000
-4.6613 	348.432 	4.73897e-10 	100000
-4.6603 	348.432 	4.77847e-10 	100000
-4.6593 	348.432 	4.81798e-10 	100000
-4.6583 	348.432 	4.85748e-10 	100000
-4.6573 	348.432 	4.89698e-10 	100000
-4.65631 	348.432 	4.93649e-10 	100000
-4.65531 	348.432 	4.97599e-10 	100000
-4.65431 	348.432 	5.0155e-10 	100000
-4.65331 	348.432 	5.055e-10 	100000
-4.65231 	348.432 	5.0945e-10 	100000
-4.65131 	348.432 	5.13401e-10 	100000
-4.65031 	348.432 	5.17351e-10 	100000
-4.64931 	348.432 	5.30007e-10 	100000
-4.64831 	348.432 	5.46588e-10 	100000
-4.64731 	348.432 	5.63169e-10 	100000
-4.64631 	348.432 	5.7975e-10 	100000
-4.64532 	348.432 	5.96332e-10 	100000
-4.64432 	348.432 	6.12913e-10 	100000
-4.64332 	348.432 	6.29494e-10 	100000
-4.64232 	348.432 	6.46076e-10 	100000
-4.64132 	348.432 	6.62657e-10 	100000
-4.64032 	348.432 	6.79238e-10 	100000
-4.63932 	348.432 	6.95819e-10 	100000
-4.63832 	348.432 	7.12401e-10 	100000
-4.63732 	348.432 	7.28982e-10 	100000
-4.63632 	348.432 	7.45563e-10 	100000
-4.63532 	348.432 	7.62144e-10 	100000
-4.63432 	348.432 	7.78726e-10 	100000
-4.63333 	348.432 	7.95307e-10 	100000
-4.63233 	348.432 	8.11888e-10 	100000
-4.63133 	348.432 	8.2847e-10 	100000
-4.63033 	348.432 	8.45051e-10 	100000
-4.62933 	348.432 	8.61632e-10 	100000
-4.62833 	348.432 	8.78213e-10 	100000
-4.62733 	348.432 	8.94795e-10 	100000
-4.62633 	348.432 	9.11376e-10 	100000
-4.62533 	348.432 	9.27957e-10 	100000
-4.62433 	348.432 	9.44538e-10 	100000
-4.62333 	348.432 	9.6112e-10 	100000
-4.62234 	348.432 	9.77701e-10 	100000
-4.62134 	348.432 	9.94282e-10 	100000
-4.62034 	348.432 	1.01086e-09 	100000
-4.61934 	348.432 	1.02744e-09 	100000
-4.61834 	348.432 	1.04403e-09 	100000
-4.61734 	348.432 	1.06061e-09 	100000
-4.61634 	348.432 	1.07719e-09 	100000
-4.61534 	348.432 	1.09377e-09 	100000
-4.61434 	348.432 	1.11035e-09 	100000
-4.61334 	348.432 	1.12693e-09 	100000
-4.61234 	348.432 	1.14351e-09 	100000
-4.61135 	348.432 	1.16009e-09 	100000
-4.61035 	348.432 	1.17668e-09 	100000
-4.60935 	348.432 	1.19326e-09 	100000
-4.60835 	348.432 	1.20984e-09 	100000
-4.60735 	348.432 	1.22642e-09 	100000
-4.60635 	348.432 	1.243e-09 	100000
-4.60535 	348.432 	1.25958e-09 	100000
-4.60435 	348.432 	1.27616e-09 	100000
-4.60335 	348.432 	1.29275e-09 	100000
-4.60235 	348.432 	1.30933e-09 	100000
-4.60135 	348.432 	1.32591e-09 	100000
-4.60036 	348.432 	1.34249e-09 	100000
-4.59936 	348.432 	1.35907e-09 	100000
-4.59836 	348.432 	1.37565e-09 	100000
-4.59736 	348.432 	1.39223e-09 	100000
-4.59636 	348.432 	1.40881e-09 	100000
-4.59536 	348.432 	1.4254e-09 	100000
-4.59436 	348.432 	1.44198e-09 	100000
-4.59336 	348.432 	1.45856e-09 	100000
-4.59236 	348.432 	1.47514e-09 	100000
-4.59136 	348.432 	1.49172e-09 	100000
-4.59036 	348.432 	1.5083e-09 	100000
-4.58937 	348.432 	1.52488e-09 	100000
-4.58837 	348.432 	1.54146e-09 	100000
-4.58737 	348.432 	1.55805e-09 	100000
-4.58637 	348.432 	1.57463e-09 	100000
-4.58537 	348.432 	1.59121e-09 	100000
-4.58437 	348.432 	1.60779e-09 	100000
-4.58337 	348.432 	1.62437e-09 	100000
-4.58237 	348.432 	1.64095e-09 	100000
-4.58137 	348.432 	1.65753e-09 	100000
-4.58037 	348.432 	1.67411e-09 	100000
-4.57937 	348.432 	1.6907e-09 	100000
-4.57838 	348.432 	1.70728e-09 	100000
-4.57738 	348.432 	1.72386e-09 	100000
-4.57638 	348.432 	1.74044e-09 	100000
-4.57538 	348.432 	1.75702e-09 	100000
-4.57438 	348.432 	1.7736e-09 	100000
-4.57338 	348.432 	1.79018e-09 	100000
-4.57238 	348.432 	1.80676e-09 	100000
-4.57138 	348.432 	1.82335e-09 	100000
-4.57038 	348.432 	1.83993e-09 	100000
-4.56938 	348.432 	1.85651e-09 	100000
-4.56838 	348.432 	1.87309e-09 	100000
-4.56739 	348.432 	1.88967e-09 	100000
-4.56639 	348.432 	1.90625e-09 	100000
-4.56539 	348.432 	1.92283e-09 	100000
-4.56439 	348.432 	1.93941e-09 	100000
-4.56339 	348.432 	1.956e-09 	100000
-4.56239 	348.432 	1.97258e-09 	100000
-4.56139 	348.432 	1.98916e-09 	100000
-4.56039 	348.432 	2.00574e-09 	100000
-4.55939 	348.432 	2.02232e-09 	100000
-4.55839 	348.432 	2.0389e-09 	100000
-4.55739 	348.432 	2.05548e-09 	100000
-4.5564 	348.432 	2.07206e-09 	100000
-4.5554 	348.432 	2.08865e-09 	100000
-4.5544 	348.432 	2.10523e-09 	100000
-4.5534 	348.432 	2.12181e-09 	100000
-4.5524 	348.432 	2.13839e-09 	100000
-4.5514 	348.432 	2.15497e-09 	100000
-4.5504 	348.432 	2.17155e-09 	100000
-4.5494 	348.432 	2.21877e-09 	100000
-4.5484 	348.432 	2.28649e-09 	100000
-4.5474 	348.432 	2.35421e-09 	100000
-4.5464 	348.432 	2.42193e-09 	100000
-4.54541 	348.432 	2.48965e-09 	100000
-4.54441 	348.432 	2.55737e-09 	100000
-4.54341 	348.432 	2.62508e-09 	100000
-4.54241 	348.432 	2.6928e-09 	100000
-4.54141 	348.432 	2.76052e-09 	100000
-4.54041 	348.432 	2.82824e-09 	100000
-4.53941 	348.432 	2.89596e-09 	100000
-4.53841 	348.432 	2.96368e-09 	100000
-4.53741 	348.432 	3.0314e-09 	100000
-4.53641 	348.432 	3.09912e-09 	100000
-4.53541 	348.432 	3.16684e-09 	100000
-4.53441 	348.432 	3.23456e-09 	100000
-4.53342 	348.432 	3.30228e-09 	100000
-4.53242 	348.432 	3.37e-09 	100000
-4.53142 	348.432 	3.43771e-09 	100000
-4.53042 	348.432 	3.50543e-09 	100000
-4.52942 	348.432 	3.57315e-09 	100000
-4.52842 	348.432 	3.64087e-09 	100000
-4.52742 	348.432 	3.70859e-09 	100000
-4.52642 	348.432 	3.77631e-09 	100000
-4.52542 	348.432 	3.84403e-09 	100000
-4.52442 	348.432 	3.91175e-09 	100000
-4.52342 	348.432 	3.97947e-09 	100000
-4.52243 	348.432 	4.04719e-09 	100000
-4.52143 	348.432 	4.11491e-09 	100000
-4.52043 	348.432 	4.18262e-09 	100000
-4.51943 	348.432 	4.25034e-09 	100000
-4.51843 	348.432 	4.31806e-09 	100000
-4.51743 	348.432 	4.38578e-09 	100000
-4.51643 	348.432 	4.4535e-09 	100000
-4.51543 	348.432 	4.52122e-09 	100000
-4.51443 	348.432 	4.58894e-09 	100000
-4.51343 	348.432 	4.65666e-09 	100000
-4.51243 	348.432 	4.72438e-09 	100000
-4.51144 	348.432 	4.7921e-09 	100000
-4.51044 	348.432 	4.85982e-09 	100000
-4.50944 	348.432 	4.92753e-09 	100000
-4.50844 	348.432 	4.99525e-09 	100000
-4.50744 	348.432 	5.06297e-09 	100000
-4.50644 	348.432 	5.13069e-09 	100000
-4.50544 	348.432 	5.19841e-09 	100000
-4.50444 	348.432 	5.26613e-09 	100000
-4.50344 	348.432 	5.33385e-09 	100000
-4.50244 	348.432 	5.40157e-09 	100000
-4.50144 	348.432 	5.46929e-09 	100000
-4.50045 	348.432 	5.53701e-09 	100000
-4.49945 	348.432 	5.60473e-09 	100000
-4.49845 	348.432 	5.67244e-09 	100000
-4.49745 	348.432 	5.74016e-09 	100000
-4.49645 	348.432 	5.80788e-09 	100000
-4.49545 	348.432 	5.8756e-09 	100000
-4.49445 	348.432 	5.94332e-09 	100000
-4.49345 	348.432 	6.01104e-09 	100000
-4.49245 	348.432 	6.07876e-09 	100000
-4.49145 	348.432 	6.14648e-09 	100000
-4.49045 	348.432 	6.2142e-09 	100000
-4.48946 	348.432 	6.28192e-09 	100000
-4.48846 	348.432 	6.34964e-09 	100000
-4.48746 	348.432 	6.41735e-09 	100000
-4.48646 	348.432 	6.48507e-09 	100000
-4.48546 	348.432 	6.55279e-09 	100000
-4.48446 	348.432 	6.62051e-09 	100000
-4.48346 	348.432 	6.68823e-09 	100000
-4.48246 	348.432 	6.75595e-09 	100000
-4.48146 	348.432 	6.82367e-09 	100000
-4.48046 	348.432 	6.89139e-09 	100000
-4.47946 	348.432 	6.95911e-09 	100000
-4.47847 	348.432 	7.02683e-09 	100000
-4.47747 	348.432 	7.09455e-09 	100000
-4.47647 	348.432 	7.16226e-09 	100000
-4.47547 	348.432 	7.22998e-09 	100000
-4.47447 	348.432 	7.2977e-09 	100000
-4.47347 	348.432 	7.36542e-09 	100000
-4.47247 	348.432 	7.43314e-09 	100000
-4.47147 	348.432 	7.50086e-09 	100000
-4.47047 	348.432 	7.56858e-09 	100000
-4.46947 	348.432 	7.6363e-09 	100000
-4.46847 	348.432 	7.70402e-09 	100000
-4.46748 	348.432 	7.77174e-09 	100000
-4.46648 	348.432 	7.83946e-09 	100000
-4.46548 	348.432 	7.90717e-09 	100000
-4.46448 	348.432 	7.97489e-09 	100000
-4.46348 	348.432 	8.04261e-09 	100000
-4.46248 	348.432 	8.11033e-09 	100000
-4.46148 	348.432 	8.17805e-09 	100000
-4.46048 	348.432 	8.24577e-09 	100000
-4.45948 	348.432 	8.31349e-09 	100000
-4.45848 	348.432 	8.38121e-09 	100000
-4.45748 	348.432 	8.44893e-09 	100000
-4.45649 	348.432 	8.51665e-09 	100000
-4.45549 	348.432 	8.58437e-09 	100000
-4.45449 	348.432 	8.65208e-09 	100000
-4.45349 	348.432 	8.7198e-09 	100000
-4.45249 	348.432 	8.78752e-09 	100000
-4.45149 	348.432 	8.85524e-09 	100000
-4.45049 	348.432 	8.92296e-09 	100000
-4.44949 	348.432 	9.09318e-09 	100000
-4.44849 	348.432 	9.36228e-09 	100000
-4.44749 	348.432 	9.63138e-09 	100000
-4.44649 	348.432 	9.90048e-09 	100000
-4.4455 	348.432 	1.01696e-08 	100000
-4.4445 	348.432 	1.04387e-08 	100000
-4.4435 	348.432 	1.07078e-08 	100000
-4.4425 	348.432 	1.09769e-08 	100000
-4.4415 	348.432 	1.1246e-08 	100000
-4.4405 	348.432 	1.15151e-08 	100000
-4.4395 	348.432 	1.17842e-08 	100000
-4.4385 	348.432 	1.20533e-08 	100000
-4.4375 	348.432 	1.23224e-08 	100000
-4.4365 	348.432 	1.25915e-08 	100000
-4.4355 	348.432 	1.28605e-08 	100000
-4.4345 	348.432 	1.31296e-08 	100000
-4.43351 	348.432 	1.33987e-08 	100000
-4.43251 	348.432 	1.36678e-08 	100000
-4.43151 	348.432 	1.39369e-08 	100000
-4.43051 	348.432 	1.4206e-08 	100000
-4.42951 	348.432 	1.44751e-08 	100000
-4.42851 	348.432 	1.47442e-08 	100000
-4.42751 	348.432 	1.50133e-08 	100000
-4.42651 	348.432 	1.52824e-08 	100000
-4.42551 	348.432 	1.55515e-08 	100000
-4.42451 	348.432 	1.58206e-08 	100000
-4.42351 	348.432 	1.60897e-08 	100000
-4.42252 	348.432 	1.63588e-08 	100000
-4.42152 	348.432 	1.66279e-08 	100000
-4.42052 	348.432 	1.6897e-08 	100000
-4.41952 	348.432 	1.71661e-08 	100000
-4.41852 	348.432 	1.74352e-08 	100000
-4.41752 	348.432 	1.77043e-08 	100000
-4.41652 	348.432 	1.79734e-08 	100000
-4.41552 	348.432 	1.82425e-08 	100000
-4.41452 	348.432 	1.85116e-08 	100000
-4.41352 	348.432 	1.87807e-08 	100000
-4.41252 	348.432 	1.90498e-08 	100000
-4.41153 	348.432 	1.93189e-08 	100000
-4.41053 	348.432 	1.9588e-08 	100000
-4.40953 	348.432 	1.98571e-08 	100000
-4.40853 	348.432 	2.01262e-08 	100000
-4.40753 	348.432 	2.03953e-08 	100000
-4.40653 	348.432 	2.06644e-08 	100000
-4.40553 	348.432 	2.09335e-08 	100000
-4.40453 	348.432 	2.12026e-08 	100000
-4.40353 	348.432 	2.14717e-08 	100000
-4.40253 	348.432 	2.17408e-08 	100000
-4.40153 	348.432 	2.20099e-08 	100000
-4.40054 	348.432 	2.2279e-08 	100000
-4.39954 	348.432 	2.25481e-08 	100000
-4.39854 	348.432 	2.28172e-08 	100000
-4.39754 	348.432 	2.30863e-08 	100000
-4.39654 	348.432 	2.33553e-08 	100000
-4.39554 	348.432 	2.36244e-08 	100000
-4.39454 	348.432 	2.38935e-08 	100000
-4.39354 	348.432 	2.41626e-08 	100000
-4.39254 	348.432 	2.44317e-08 	100000
-4.39154 	348.432 	2.47008e-08 	100000
-4.39054 	348.432 	2.49699e-08 	100000
-4.38955 	348.432 	2.5239e-08 	100000
-4.38855 	348.432 	2.55081e-08 	100000
-4.38755 	348.432 	2.57772e-08 	100000
-4.38655 	348.432 	2.60463e-08 	100000
-4.38555 	348.432 	2.63154e-08 	100000
-4.38455 	348.432 	2.65845e-08 	100000
-4.38355 	348.432 	2.68536e-08 	100000
-4.38255 	348.432 	2.71227e-08 	100000
-4.38155 	348.432 	2.73918e-08 	100000
-4.38055 	348.432 	2.76609e-08 	100000
-4.37955 	348.432 	2.793e-08 	100000
-4.37856 	348.432 	2.81991e-08 	100000
-4.37756 	348.432 	2.84682e-08 	100000
-4.37656 	348.432 	2.87373e-08 	100000
-4.37556 	348.432 	2.90064e-08 	100000
-4.37456 	348.432 	2.92755e-08 	100000
-4.37356 	348.432 	2.95446e-08 	100000
-4.37256 	348.432 	2.98137e-08 	100000
-4.37156 	348.432 	3.00828e-08 	100000
-4.37056 	348.432 	3.03519e-08 	100000
-4.36956 	348.432 	3.0621e-08 	100000
-4.36856 	348.432 	3.08901e-08 	100000
-4.36757 	348.432 	3.11592e-08 	100000
-4.36657 	348.432 	3.14283e-08 	100000
-4.36557 	348.432 	3.16974e-08 	100000
-4.36457 	348.432 	3.19665e-08 	100000
-4.36357 	348.432 	3.22356e-08 	100000
-4.36257 	348.432 	3.25047e-08 	100000
-4.36157 	348.432 	3.27738e-08 	100000
-4.36057 	348.432 	3.30429e-08 	100000
-4.35957 	348.432 	3.3312e-08 	100000
-4.35857 	348.432 	3.35811e-08 	100000
-4.35757 	348.432 	3.38502e-08 	100000
-4.35658 	348.432 	3.41192e-08 	100000
-4.35558 	348.432 	3.43883e-08 	100000
-4.35458 	348.432 	3.46574e-08 	100000
-4.35358 	348.432 	3.49265e-08 	100000
-4.35258 	348.432 	3.51956e-08 	100000
-4.35158 	348.432 	3.54647e-08 	100000
-4.35058 	348.432 	3.57338e-08 	100000
-4.34958 	348.432 	3.63261e-08 	100000
-4.34858 	348.432 	3.73665e-08 	100000
-4.34758 	348.432 	3.8407e-08 	100000
-4.34658 	348.432 	3.94475e-08 	100000
-4.34559 	348.432 	4.04879e-08 	100000
-4.34459 	348.432 	4.15284e-08 	100000
-4.34359 	348.432 	4.25688e-08 	100000
-4.34259 	348.432 	4.36093e-08 	100000
-4.34159 	348.432 	4.46498e-08 	100000
-4.34059 	348.432 	4.56902e-08 	100000
-4.33959 	348.432 	4.67307e-08 	100000
-4.33859 	348.432 	4.77711e-08 	100000
-4.33759 	348.432 	4.88116e-08 	100000
-4.33659 	348.432 	4.98521e-08 	100000
-4.33559 	348.432 	5.08925e-08 	100000
-4.33459 	348.432 	5.1933e-08 	100000
-4.3336 	348.432 	5.29734e-08 	100000
-4.3326 	348.432 	5.40139e-08 	100000
-4.3316 	348.432 	5.50544e-08 	100000
-4.3306 	348.432 	5.60948e-08 	100000
-4.3296 	348.432 	5.71353e-08 	100000
-4.3286 	348.432 	5.81757e-08 	100000
-4.3276 	348.432 	5.92162e-08 	100000
-4.3266 	348.432 	6.02567e-08 	100000
-4.3256 	348.432 	6.12971e-08 	100000
-4.3246 	348.432 	6.23376e-08 	100000
-4.3236 	348.432 	6.3378e-08 	100000
-4.32261 	348.432 	6.44185e-08 	100000
-4.32161 	348.432 	6.5459e-08 	100000
-4.32061 	348.432 	6.64994e-08 	100000
-4.31961 	348.432 	6.75399e-08 	100000
-4.31861 	348.432 	6.85803e-08 	100000
-4.31761 	348.432 	6.96208e-08 	100000
-4.31661 	348.432 	7.06613e-08 	100000
-4.31561 	348.432 	7.17017e-08 	100000
-4.31461 	348.432 	7.27422e-08 	100000
-4.31361 	348.432 	7.37827e-08 	100000
-4.31261 	348.432 	7.48231e-08 	100000
-4.31162 	348.432 	7.58636e-08 	100000
-4.31062 	348.432 	7.6904e-08 	100000
-4.30962 	348.432 	7.79445e-08 	100000
-4.30862 	348.432 	7.8985e-08 	100000
-4.30762 	348.432 	8.00254e-08 	100000
-4.30662 	348.432 	8.10659e-08 	100000
-4.30562 	348.432 	8.21063e-08 	100000
-4.30462 	348.432 	8.31468e-08 	100000
-4.30362 	348.432 	8.41873e-08 	100000
-4.30262 	348.432 	8.52277e-08 	100000
-4.30162 	348.432 	8.62682e-08 	100000
-4.30063 	348.432 	8.73086e-08 	100000
-4.29963 	348.432 	8.83491e-08 	100000
-4.29863 	348.432 	8.93896e-08 	100000
-4.29763 	348.432 	9.043e-08 	100000
-4.29663 	348.432 	9.14705e-08 	100000
-4.29563 	348.432 	9.25109e-08 	100000
-4.29463 	348.432 	9.35514e-08 	100000
-4.29363 	348.432 	9.45919e-08 	100000
-4.29263 	348.432 	9.56323e-08 	100000
-4.29163 	348.432 	9.66728e-08 	100000
-4.29063 	348.432 	9.77132e-08 	100000
-4.28964 	348.432 	9.87537e-08 	100000
-4.28864 	348.432 	9.97942e-08 	100000
-4.28764 	348.432 	1.00835e-07 	100000
-4.28664 	348.432 	1.01875e-07 	100000
-4.28564 	348.432 	1.02916e-07 	100000
-4.28464 	348.432 	1.03956e-07 	100000
-4.28364 	348.432 	1.04996e-07 	100000
-4.28264 	348.432 	1.06037e-07 	100000
-4.28164 	348.432 	1.07077e-07 	100000
-4.28064 	348.432 	1.08118e-07 	100000
-4.27964 	348.432 	1.09158e-07 	100000
-4.27865 	348.432 	1.10199e-07 	100000
-4.27765 	348.432 	1.11239e-07 	100000
-4.27665 	348.432 	1.1228e-07 	100000
-4.27565 	348.432 	1.1332e-07 	100000
-4.27465 	348.432 	1.14361e-07 	100000
-4.27365 	348.432 	1.15401e-07 	100000
-4.27265 	348.432 	1.16442e-07 	100000
-4.27165 	348.432 	1.17482e-07 	100000
-4.27065 	348.432 	1.18522e-07 	100000
-4.26965 	348.432 	1.19563e-07 	100000
-4.26865 	348.432 	1.20603e-07 	100000
-4.26766 	348.432 	1.21644e-07 	100000
-4.26666 	348.432 	1.22684e-07 	100000
-4.26566 	348.432 	1.23725e-07 	100000
-4.26466 	348.432 	1.24765e-07 	100000
-4.26366 	348.432 	1.25806e-07 	100000
-4.26266 	348.432 	1.26846e-07 	100000
-4.26166 	348.432 	1.27887e-07 	100000
-4.26066 	348.432 	1.28927e-07 	100000
-4.25966 	348.432 	1.29968e-07 	100000
-4.25866 	348.432 	1.31008e-07 	100000
-4.25766 	348.432 	1.32048e-07 	100000
-4.25667 	348.432 	1.33089e-07 	100000
-4.25567 	348.432 	1.34129e-07 	100000
-4.25467 	348.432 	1.3517e-07 	100000
-4.25367 	348.432 	1.3621e-07 	100000
-4.25267 	348.432 	1.37251e-07 	100000
-4.25167 	348.432 	1.38291e-07 	100000
-4.25067 	348.432 	1.39332e-07 	100000
-4.24967 	348.432 	1.41316e-07 	100000
-4.24867 	348.432 	1.45225e-07 	100000
-4.24767 	348.432 	1.49134e-07 	100000
-4.24667 	348.432 	1.53044e-07 	100000
-4.24568 	348.432 	1.56953e-07 	100000
-4.24468 	348.432 	1.60862e-07 	100000
-4.24368 	348.432 	1.64772e-07 	100000
-4.24268 	348.432 	1.68681e-07 	100000
-4.24168 	348.432 	1.7259e-07 	100000
-4.24068 	348.432 	1.765e-07 	100000
-4.23968 	348.432 	1.80409e-07 	100000
-4.23868 	348.432 	1.84318e-07 	100000
-4.23768 	348.432 	1.88228e-07 	100000
-4.23668 	348.432 	1.92137e-07 	100000
-4.23568 	348.432 	1.96046e-07 	100000
-4.23468 	348.432 	1.99956e-07 	100000
-4.23369 	348.432 	2.03865e-07 	100000
-4.23269 	348.432 	2.07774e-07 	100000
-4.23169 	348.432 	2.11684e-07 	100000
-4.23069 	348.432 	2.15593e-07 	100000
-4.22969 	348.432 	2.19502e-07 	100000
-4.22869 	348.432 	2.23412e-07 	100000
-4.22769 	348.432 	2.27321e-07 	100000
-4.22669 	348.432 	2.31231e-07 	100000
-4.22569 	348.432 	2.3514e-07 	100000
-4.22469 	348.432 	2.39049e-07 	100000
-4.22369 	348.432 	2.42959e-07 	100000